<?xml version="1.0"?>
<VTKFile type="UnstructuredGrid" version="0.1" byte_order="LittleEndian" compressor="vtkZLibDataCompressor">
  <UnstructuredGrid>
    <Piece NumberOfPoints="2502" NumberOfCells="5000">
      <Points>
        <DataArray type="Float32" NumberOfComponents="3" format="ascii">
          1.446e+02 1.161e+02 1.229e+02
          1.442e+02 1.166e+02 1.233e+02
          1.450e+02 1.141e+02 1.242e+02
          1.447e+02 1.156e+02 1.231e+02
          1.446e+02 1.143e+02 1.242e+02
          1.440e+02 1.155e+02 1.237e+02
          1.438e+02 1.173e+02 1.237e+02
          1.434e+02 1.171e+02 1.239e+02
          1.435e+02 1.167e+02 1.240e+02
          1.450e+02 1.138e+02 1.252e+02
          1.451e+02 1.145e+02 1.245e+02
          1.451e+02 1.153e+02 1.240e+02
          1.447e+02 1.136e+02 1.254e+02
          1.450e+02 1.153e+02 1.237e+02
          1.439e+02 1.145e+02 1.256e+02
          1.449e+02 1.165e+02 1.233e+02
          1.445e+02 1.175e+02 1.237e+02
          1.438e+02 1.151e+02 1.247e+02
          1.439e+02 1.180e+02 1.242e+02
          1.442e+02 1.174e+02 1.237e+02
          1.435e+02 1.176e+02 1.242e+02
          1.431e+02 1.162e+02 1.247e+02
          1.446e+02 1.135e+02 1.268e+02
          1.451e+02 1.143e+02 1.257e+02
          1.452e+02 1.166e+02 1.244e+02
          1.436e+02 1.148e+02 1.260e+02
          1.445e+02 1.182e+02 1.247e+02
          1.431e+02 1.154e+02 1.257e+02
          1.433e+02 1.181e+02 1.256e+02
          1.432e+02 1.180e+02 1.247e+02
          1.430e+02 1.174e+02 1.245e+02
          1.426e+02 1.171e+02 1.252e+02
          1.446e+02 1.120e+02 1.318e+02
          1.448e+02 1.122e+02 1.305e+02
          1.447e+02 1.128e+02 1.295e+02
          1.448e+02 1.132e+02 1.281e+02
          1.452e+02 1.151e+02 1.256e+02
          1.438e+02 1.138e+02 1.279e+02
          1.435e+02 1.134e+02 1.289e+02
          1.452e+02 1.167e+02 1.256e+02
          1.438e+02 1.141e+02 1.268e+02
          1.447e+02 1.182e+02 1.259e+02
          1.431e+02 1.150e+02 1.265e+02
          1.438e+02 1.182e+02 1.266e+02
          1.424e+02 1.162e+02 1.267e+02
          1.432e+02 1.182e+02 1.270e+02
          1.425e+02 1.165e+02 1.259e+02
          1.425e+02 1.177e+02 1.259e+02
          1.448e+02 1.119e+02 1.323e+02
          1.446e+02 1.119e+02 1.321e+02
          1.447e+02 1.122e+02 1.313e+02
          1.445e+02 1.120e+02 1.313e+02
          1.450e+02 1.132e+02 1.290e+02
          1.443e+02 1.122e+02 1.307e+02
          1.438e+02 1.121e+02 1.316e+02
          1.451e+02 1.140e+02 1.270e+02
          1.442e+02 1.127e+02 1.298e+02
          1.452e+02 1.151e+02 1.263e+02
          1.439e+02 1.130e+02 1.292e+02
          1.431e+02 1.130e+02 1.307e+02
          1.453e+02 1.166e+02 1.267e+02
          1.450e+02 1.180e+02 1.273e+02
          1.430e+02 1.138e+02 1.290e+02
          1.430e+02 1.146e+02 1.275e+02
          1.445e+02 1.182e+02 1.268e+02
          1.442e+02 1.182e+02 1.267e+02
          1.442e+02 1.182e+02 1.273e+02
          1.423e+02 1.159e+02 1.273e+02
          1.437e+02 1.182e+02 1.277e+02
          1.419e+02 1.164e+02 1.276e+02
          1.418e+02 1.169e+02 1.278e+02
          1.419e+02 1.172e+02 1.270e+02
          1.421e+02 1.179e+02 1.270e+02
          1.422e+02 1.173e+02 1.259e+02
          1.420e+02 1.175e+02 1.264e+02
          1.450e+02 1.124e+02 1.314e+02
          1.443e+02 1.118e+02 1.331e+02
          1.452e+02 1.141e+02 1.285e+02
          1.453e+02 1.151e+02 1.276e+02
          1.434e+02 1.123e+02 1.317e+02
          1.429e+02 1.126e+02 1.321e+02
          1.453e+02 1.162e+02 1.277e+02
          1.427e+02 1.133e+02 1.312e+02
          1.452e+02 1.176e+02 1.284e+02
          1.428e+02 1.138e+02 1.299e+02
          1.426e+02 1.147e+02 1.287e+02
          1.446e+02 1.182e+02 1.286e+02
          1.419e+02 1.159e+02 1.285e+02
          1.439e+02 1.183e+02 1.288e+02
          1.428e+02 1.182e+02 1.279e+02
          1.419e+02 1.177e+02 1.283e+02
          1.448e+02 1.118e+02 1.339e+02
          1.450e+02 1.120e+02 1.335e+02
          1.446e+02 1.117e+02 1.345e+02
          1.441e+02 1.117e+02 1.343e+02
          1.452e+02 1.133e+02 1.310e+02
          1.437e+02 1.118e+02 1.333e+02
          1.454e+02 1.146e+02 1.295e+02
          1.433e+02 1.118e+02 1.337e+02
          1.429e+02 1.120e+02 1.336e+02
          1.454e+02 1.158e+02 1.291e+02
          1.426e+02 1.127e+02 1.329e+02
          1.453e+02 1.170e+02 1.291e+02
          1.425e+02 1.136e+02 1.313e+02
          1.451e+02 1.179e+02 1.297e+02
          1.449e+02 1.182e+02 1.294e+02
          1.423e+02 1.143e+02 1.302e+02
          1.443e+02 1.182e+02 1.302e+02
          1.417e+02 1.157e+02 1.295e+02
          1.434e+02 1.183e+02 1.295e+02
          1.427e+02 1.181e+02 1.289e+02
          1.423e+02 1.177e+02 1.292e+02
          1.412e+02 1.169e+02 1.297e+02
          1.417e+02 1.173e+02 1.295e+02
          1.417e+02 1.168e+02 1.288e+02
          1.418e+02 1.173e+02 1.284e+02
          1.417e+02 1.171e+02 1.291e+02
          1.448e+02 1.116e+02 1.353e+02
          1.446e+02 1.113e+02 1.355e+02
          1.442e+02 1.111e+02 1.361e+02
          1.454e+02 1.139e+02 1.313e+02
          1.438e+02 1.114e+02 1.355e+02
          1.432e+02 1.118e+02 1.350e+02
          1.454e+02 1.154e+02 1.305e+02
          1.428e+02 1.121e+02 1.345e+02
          1.453e+02 1.166e+02 1.304e+02
          1.425e+02 1.128e+02 1.335e+02
          1.424e+02 1.133e+02 1.323e+02
          1.423e+02 1.132e+02 1.330e+02
          1.452e+02 1.176e+02 1.307e+02
          1.421e+02 1.139e+02 1.316e+02
          1.444e+02 1.182e+02 1.317e+02
          1.418e+02 1.149e+02 1.303e+02
          1.415e+02 1.159e+02 1.303e+02
          1.435e+02 1.183e+02 1.306e+02
          1.415e+02 1.173e+02 1.305e+02
          1.410e+02 1.166e+02 1.303e+02
          1.452e+02 1.123e+02 1.339e+02
          1.447e+02 1.111e+02 1.363e+02
          1.453e+02 1.128e+02 1.336e+02
          1.438e+02 1.111e+02 1.371e+02
          1.454e+02 1.148e+02 1.319e+02
          1.429e+02 1.119e+02 1.360e+02
          1.454e+02 1.162e+02 1.312e+02
          1.454e+02 1.162e+02 1.319e+02
          1.426e+02 1.124e+02 1.346e+02
          1.425e+02 1.129e+02 1.340e+02
          1.425e+02 1.127e+02 1.348e+02
          1.453e+02 1.172e+02 1.316e+02
          1.452e+02 1.174e+02 1.326e+02
          1.421e+02 1.134e+02 1.330e+02
          1.451e+02 1.180e+02 1.318e+02
          1.416e+02 1.146e+02 1.315e+02
          1.411e+02 1.154e+02 1.315e+02
          1.446e+02 1.182e+02 1.325e+02
          1.446e+02 1.182e+02 1.330e+02
          1.411e+02 1.159e+02 1.309e+02
          1.437e+02 1.183e+02 1.324e+02
          1.429e+02 1.182e+02 1.311e+02
          1.424e+02 1.178e+02 1.306e+02
          1.421e+02 1.177e+02 1.317e+02
          1.415e+02 1.174e+02 1.315e+02
          1.410e+02 1.170e+02 1.311e+02
          1.446e+02 1.110e+02 1.372e+02
          1.451e+02 1.117e+02 1.357e+02
          1.438e+02 1.112e+02 1.379e+02
          1.434e+02 1.116e+02 1.374e+02
          1.432e+02 1.116e+02 1.365e+02
          1.454e+02 1.135e+02 1.338e+02
          1.427e+02 1.119e+02 1.366e+02
          1.454e+02 1.157e+02 1.327e+02
          1.424e+02 1.127e+02 1.353e+02
          1.418e+02 1.137e+02 1.338e+02
          1.453e+02 1.173e+02 1.333e+02
          1.418e+02 1.137e+02 1.331e+02
          1.415e+02 1.148e+02 1.320e+02
          1.446e+02 1.182e+02 1.338e+02
          1.433e+02 1.184e+02 1.330e+02
          1.428e+02 1.183e+02 1.323e+02
          1.408e+02 1.162e+02 1.317e+02
          1.417e+02 1.178e+02 1.327e+02
          1.407e+02 1.169e+02 1.322e+02
          1.411e+02 1.174e+02 1.323e+02
          1.405e+02 1.173e+02 1.333e+02
          1.447e+02 1.110e+02 1.378e+02
          1.438e+02 1.112e+02 1.385e+02
          1.453e+02 1.131e+02 1.350e+02
          1.429e+02 1.121e+02 1.374e+02
          1.435e+02 1.117e+02 1.380e+02
          1.454e+02 1.155e+02 1.335e+02
          1.422e+02 1.126e+02 1.359e+02
          1.453e+02 1.171e+02 1.340e+02
          1.444e+02 1.181e+02 1.345e+02
          1.413e+02 1.147e+02 1.326e+02
          1.428e+02 1.184e+02 1.339e+02
          1.407e+02 1.156e+02 1.326e+02
          1.412e+02 1.180e+02 1.337e+02
          1.401e+02 1.174e+02 1.341e+02
          1.398e+02 1.170e+02 1.331e+02
          1.447e+02 1.109e+02 1.387e+02
          1.437e+02 1.113e+02 1.393e+02
          1.454e+02 1.146e+02 1.339e+02
          1.454e+02 1.130e+02 1.358e+02
          1.429e+02 1.123e+02 1.380e+02
          1.454e+02 1.156e+02 1.343e+02
          1.420e+02 1.126e+02 1.363e+02
          1.452e+02 1.172e+02 1.348e+02
          1.416e+02 1.139e+02 1.343e+02
          1.439e+02 1.181e+02 1.351e+02
          1.406e+02 1.153e+02 1.337e+02
          1.426e+02 1.183e+02 1.346e+02
          1.412e+02 1.182e+02 1.341e+02
          1.407e+02 1.179e+02 1.341e+02
          1.406e+02 1.180e+02 1.346e+02
          1.390e+02 1.170e+02 1.341e+02
          1.400e+02 1.177e+02 1.351e+02
          1.451e+02 1.117e+02 1.376e+02
          1.445e+02 1.110e+02 1.398e+02
          1.438e+02 1.112e+02 1.399e+02
          1.434e+02 1.118e+02 1.388e+02
          1.434e+02 1.118e+02 1.393e+02
          1.428e+02 1.123e+02 1.385e+02
          1.454e+02 1.153e+02 1.353e+02
          1.419e+02 1.127e+02 1.367e+02
          1.448e+02 1.172e+02 1.354e+02
          1.413e+02 1.141e+02 1.349e+02
          1.434e+02 1.179e+02 1.357e+02
          1.424e+02 1.184e+02 1.351e+02
          1.404e+02 1.156e+02 1.342e+02
          1.409e+02 1.183e+02 1.353e+02
          1.396e+02 1.182e+02 1.362e+02
          1.392e+02 1.172e+02 1.350e+02
          1.450e+02 1.112e+02 1.393e+02
          1.444e+02 1.109e+02 1.407e+02
          1.438e+02 1.112e+02 1.408e+02
          1.453e+02 1.124e+02 1.375e+02
          1.434e+02 1.119e+02 1.397e+02
          1.454e+02 1.134e+02 1.365e+02
          1.454e+02 1.153e+02 1.360e+02
          1.427e+02 1.124e+02 1.390e+02
          1.421e+02 1.126e+02 1.377e+02
          1.420e+02 1.126e+02 1.380e+02
[...]
      <PointData Scalars="JD_Thresh">
        <DataArray type="Float32" Name="JD_Thresh" NumberOfComponents="1" format="ascii">
          0.000e+00
          0.000e+00
          0.000e+00
          0.000e+00
          0.000e+00
          0.000e+00
          0.000e+00
          0.000e+00
          0.000e+00
          0.000e+00
          0.000e+00
          0.000e+00
          0.000e+00
          0.000e+00
          0.000e+00
          0.000e+00
          0.000e+00
          0.000e+00
          0.000e+00
          0.000e+00
          0.000e+00
          0.000e+00
          0.000e+00
          0.000e+00
          0.000e+00
          0.000e+00
          0.000e+00
          0.000e+00
          0.000e+00
          0.000e+00
          0.000e+00
          0.000e+00
          0.000e+00
          0.000e+00
          0.000e+00
          0.000e+00
          0.000e+00
          0.000e+00
          0.000e+00
          0.000e+00
          0.000e+00
          0.000e+00
          0.000e+00
          0.000e+00
          0.000e+00
          0.000e+00
          0.000e+00
          0.000e+00
          0.000e+00
          0.000e+00
          0.000e+00
          0.000e+00
          0.000e+00
          0.000e+00
          0.000e+00
          0.000e+00
          0.000e+00
          0.000e+00
          0.000e+00
          0.000e+00
          0.000e+00
          0.000e+00
          0.000e+00
          0.000e+00
          0.000e+00
          0.000e+00
          0.000e+00
          0.000e+00
          0.000e+00
          0.000e+00
          0.000e+00
          0.000e+00
          0.000e+00
          0.000e+00
          0.000e+00
          0.000e+00
          0.000e+00
          0.000e+00
          0.000e+00
          0.000e+00
          0.000e+00
          0.000e+00
          0.000e+00
          0.000e+00
          0.000e+00
          0.000e+00
          0.000e+00
          0.000e+00
          0.000e+00
          0.000e+00
          0.000e+00
          0.000e+00
          0.000e+00
          0.000e+00
          0.000e+00
          0.000e+00
          0.000e+00
          0.000e+00
          0.000e+00
          0.000e+00
          0.000e+00
          0.000e+00
          0.000e+00
          0.000e+00
          0.000e+00
          0.000e+00
          0.000e+00
          0.000e+00
          0.000e+00
          0.000e+00
          0.000e+00
          0.000e+00
          0.000e+00
          0.000e+00
          0.000e+00
          0.000e+00
          0.000e+00
          0.000e+00
          0.000e+00
          0.000e+00
          0.000e+00
          0.000e+00
          0.000e+00
          0.000e+00
          0.000e+00
          0.000e+00
          0.000e+00
          0.000e+00
          0.000e+00
          0.000e+00
          0.000e+00
          0.000e+00
          0.000e+00
          0.000e+00
          0.000e+00
          0.000e+00
          0.000e+00
          0.000e+00
          0.000e+00
          0.000e+00
          0.000e+00
          0.000e+00
          0.000e+00
          0.000e+00
          0.000e+00
          0.000e+00
          0.000e+00
          0.000e+00
          0.000e+00
          0.000e+00
          0.000e+00
          0.000e+00
          0.000e+00
          0.000e+00
          0.000e+00
          0.000e+00
          0.000e+00
          0.000e+00
          0.000e+00
          0.000e+00
          0.000e+00
          0.000e+00
          0.000e+00
          0.000e+00
          0.000e+00
          0.000e+00
          0.000e+00
          0.000e+00
          0.000e+00
          0.000e+00
          0.000e+00
          0.000e+00
          0.000e+00
          0.000e+00
          0.000e+00
          0.000e+00
          0.000e+00
          0.000e+00
          0.000e+00
          0.000e+00
          0.000e+00
          0.000e+00
          0.000e+00
          0.000e+00
          0.000e+00
          0.000e+00
          0.000e+00
          0.000e+00
          0.000e+00
          0.000e+00
          0.000e+00
          0.000e+00
          0.000e+00
          0.000e+00
          0.000e+00
          0.000e+00
          0.000e+00
          0.000e+00
          0.000e+00
          0.000e+00
          0.000e+00
          0.000e+00
          0.000e+00
          0.000e+00
          0.000e+00
          0.000e+00
          0.000e+00
          0.000e+00
          0.000e+00
          0.000e+00
          0.000e+00
          0.000e+00
          0.000e+00
          0.000e+00
          0.000e+00
          0.000e+00
          0.000e+00
          0.000e+00
          0.000e+00
          0.000e+00
          0.000e+00
          0.000e+00
          0.000e+00
          0.000e+00
          0.000e+00
          0.000e+00
          0.000e+00
          0.000e+00
          0.000e+00
          0.000e+00
          0.000e+00
          0.000e+00
          0.000e+00
          0.000e+00
          0.000e+00
          0.000e+00
          0.000e+00
          0.000e+00
          0.000e+00
          0.000e+00
          0.000e+00
          0.000e+00
          0.000e+00
          0.000e+00
          0.000e+00
          0.000e+00
          0.000e+00
          0.000e+00
          0.000e+00
          0.000e+00
          0.000e+00
          0.000e+00
          0.000e+00
          0.000e+00
          0.000e+00
          0.000e+00
          0.000e+00
          0.000e+00
          0.000e+00
          0.000e+00
          0.000e+00
          0.000e+00
          0.000e+00
          0.000e+00
          0.000e+00
          0.000e+00
          0.000e+00
          0.000e+00
          0.000e+00
          0.000e+00
          0.000e+00
          0.000e+00
          0.000e+00
          0.000e+00
          0.000e+00
          0.000e+00
          0.000e+00
          0.000e+00
          0.000e+00
          0.000e+00
          0.000e+00
          0.000e+00
          0.000e+00
          0.000e+00
          0.000e+00
          0.000e+00
          0.000e+00
          0.000e+00
          0.000e+00
          0.000e+00
          0.000e+00
          0.000e+00
          0.000e+00
          0.000e+00
          0.000e+00
          0.000e+00
          0.000e+00
          0.000e+00
          0.000e+00
          0.000e+00
          0.000e+00
          0.000e+00
          0.000e+00
          0.000e+00
          0.000e+00
          0.000e+00
          0.000e+00
          0.000e+00
          0.000e+00
          0.000e+00
          0.000e+00
          0.000e+00
          0.000e+00
          0.000e+00
          0.000e+00
          0.000e+00
          0.000e+00
          0.000e+00
          0.000e+00
          0.000e+00
          0.000e+00
          0.000e+00
          0.000e+00
          0.000e+00
          0.000e+00
          0.000e+00
          0.000e+00
          0.000e+00
          0.000e+00
          0.000e+00
          0.000e+00
          0.000e+00
          0.000e+00
          0.000e+00
          0.000e+00
          0.000e+00
          0.000e+00
          0.000e+00
          0.000e+00
          0.000e+00
          0.000e+00
          0.000e+00
          0.000e+00
          0.000e+00
          0.000e+00
          0.000e+00
          0.000e+00
          0.000e+00
          0.000e+00
          0.000e+00
          0.000e+00
          0.000e+00
          0.000e+00
          0.000e+00
          0.000e+00
          0.000e+00
          0.000e+00
          0.000e+00
          0.000e+00
          0.000e+00
          0.000e+00
          0.000e+00
          0.000e+00
          0.000e+00
          0.000e+00
          0.000e+00
          0.000e+00
          0.000e+00
          0.000e+00
          0.000e+00
          0.000e+00
          0.000e+00
          0.000e+00
          0.000e+00
          0.000e+00
          0.000e+00
          0.000e+00
          0.000e+00
          0.000e+00
          0.000e+00
          0.000e+00
          0.000e+00
          0.000e+00
          0.000e+00
          0.000e+00
          0.000e+00
          0.000e+00
          0.000e+00
          0.000e+00
          0.000e+00
          0.000e+00
          0.000e+00
          0.000e+00
          0.000e+00
          0.000e+00
          0.000e+00
          0.000e+00
          0.000e+00
          0.000e+00
          0.000e+00
          0.000e+00
          0.000e+00
          0.000e+00
          0.000e+00
          0.000e+00
          0.000e+00
          0.000e+00
          0.000e+00
          0.000e+00
          0.000e+00
          0.000e+00
          0.000e+00
          0.000e+00
          0.000e+00
          0.000e+00
          0.000e+00
          0.000e+00
          0.000e+00
          0.000e+00
          0.000e+00
          0.000e+00
          0.000e+00
          0.000e+00
          0.000e+00
          0.000e+00
          0.000e+00
          0.000e+00
          0.000e+00
          0.000e+00
          0.000e+00
          0.000e+00
          0.000e+00
          0.000e+00
          0.000e+00
          0.000e+00
          0.000e+00
          0.000e+00
          0.000e+00
          0.000e+00
          0.000e+00
          0.000e+00
          0.000e+00
          0.000e+00
          0.000e+00
          0.000e+00
          0.000e+00
          0.000e+00
          0.000e+00
          0.000e+00
          0.000e+00
          0.000e+00
          0.000e+00
          0.000e+00
          0.000e+00
          0.000e+00
          0.000e+00
          0.000e+00
          0.000e+00
          0.000e+00
          0.000e+00
          0.000e+00
          0.000e+00
          0.000e+00
          0.000e+00
          0.000e+00
          0.000e+00
          0.000e+00
          0.000e+00
          0.000e+00
          0.000e+00
          0.000e+00
          0.000e+00
          0.000e+00
          0.000e+00
          0.000e+00
          0.000e+00
          0.000e+00
          0.000e+00
          0.000e+00
          0.000e+00
          0.000e+00
          0.000e+00
          0.000e+00
          0.000e+00
          0.000e+00
          0.000e+00
          0.000e+00
          0.000e+00
          0.000e+00
          0.000e+00
          0.000e+00
          0.000e+00
          0.000e+00
          0.000e+00
          0.000e+00
          0.000e+00
          0.000e+00
          0.000e+00
          0.000e+00
          0.000e+00
          0.000e+00
          0.000e+00
          0.000e+00
          0.000e+00
          0.000e+00
          0.000e+00
          0.000e+00
          0.000e+00
          0.000e+00
          0.000e+00
          0.000e+00
          0.000e+00
          0.000e+00
          0.000e+00
          0.000e+00
          0.000e+00
          0.000e+00
          0.000e+00
          0.000e+00
          0.000e+00
          0.000e+00
          0.000e+00
          0.000e+00
          0.000e+00
          0.000e+00
          0.000e+00
          0.000e+00
          0.000e+00
          0.000e+00
          0.000e+00
          0.000e+00
          0.000e+00
          0.000e+00
          0.000e+00
          0.000e+00
          0.000e+00
          0.000e+00
          0.000e+00
          0.000e+00
          0.000e+00
          0.000e+00
          0.000e+00
          0.000e+00
          0.000e+00
          0.000e+00
          0.000e+00
          0.000e+00
          0.000e+00
          0.000e+00
          0.000e+00
          0.000e+00
          0.000e+00
          0.000e+00
          0.000e+00
          0.000e+00
          0.000e+00
          0.000e+00
          0.000e+00
          0.000e+00
          0.000e+00
          0.000e+00
          0.000e+00
          0.000e+00
          0.000e+00
          0.000e+00
          0.000e+00
          0.000e+00
          0.000e+00
          0.000e+00
          0.000e+00
          0.000e+00
          0.000e+00
          0.000e+00
          0.000e+00
          0.000e+00
          0.000e+00
          0.000e+00
          0.000e+00
          0.000e+00
          0.000e+00
          0.000e+00
          0.000e+00
          0.000e+00
          0.000e+00
          0.000e+00
          0.000e+00
          0.000e+00
          0.000e+00
          0.000e+00
          0.000e+00
          0.000e+00
          0.000e+00
          0.000e+00
          0.000e+00
          0.000e+00
          0.000e+00
          0.000e+00
          0.000e+00
          0.000e+00
          0.000e+00
          0.000e+00
          0.000e+00
          0.000e+00
          0.000e+00
          0.000e+00
          0.000e+00
          0.000e+00
          0.000e+00
          0.000e+00
          0.000e+00
          0.000e+00
          0.000e+00
          0.000e+00
          0.000e+00
          0.000e+00
          0.000e+00
          0.000e+00
          0.000e+00
          0.000e+00
          0.000e+00
          0.000e+00
          0.000e+00
          0.000e+00
          0.000e+00
          0.000e+00
          0.000e+00
          0.000e+00
          0.000e+00
          0.000e+00
          0.000e+00
          0.000e+00
          0.000e+00
          0.000e+00
          0.000e+00
          0.000e+00
          0.000e+00
          0.000e+00
          0.000e+00
          0.000e+00
          0.000e+00
          0.000e+00
          0.000e+00
          0.000e+00
          0.000e+00
          0.000e+00
          0.000e+00
          0.000e+00
          0.000e+00
          0.000e+00
          0.000e+00
          0.000e+00
          0.000e+00
          0.000e+00
          0.000e+00
          0.000e+00
          0.000e+00
          0.000e+00
          0.000e+00
          0.000e+00
          0.000e+00
          0.000e+00
          0.000e+00
          0.000e+00
          0.000e+00
          0.000e+00
          0.000e+00
          0.000e+00
          0.000e+00
          0.000e+00
          0.000e+00
          0.000e+00
          0.000e+00
          0.000e+00
          0.000e+00
          0.000e+00
          0.000e+00
          0.000e+00
          0.000e+00
          0.000e+00
          0.000e+00
          0.000e+00
          0.000e+00
          0.000e+00
          0.000e+00
          0.000e+00
          0.000e+00
          0.000e+00
          0.000e+00
          0.000e+00
          0.000e+00
          0.000e+00
          0.000e+00
          0.000e+00
          0.000e+00
          0.000e+00
          0.000e+00
          0.000e+00
          0.000e+00
          0.000e+00
          0.000e+00
          0.000e+00
          0.000e+00
          0.000e+00
          0.000e+00
          0.000e+00
          0.000e+00
          0.000e+00
          0.000e+00
          0.000e+00
          0.000e+00
          0.000e+00
          0.000e+00
          0.000e+00
          0.000e+00
          0.000e+00
          0.000e+00
          0.000e+00
          0.000e+00
          0.000e+00
          0.000e+00
          0.000e+00
          0.000e+00
          0.000e+00
          0.000e+00
          0.000e+00
          0.000e+00
          0.000e+00
          0.000e+00
          0.000e+00
          0.000e+00
          0.000e+00
          0.000e+00
          0.000e+00
          0.000e+00
          0.000e+00
          0.000e+00
          0.000e+00
          0.000e+00
          0.000e+00
          0.000e+00
          0.000e+00
          0.000e+00
          0.000e+00
          0.000e+00
          0.000e+00
          0.000e+00
          0.000e+00
          0.000e+00
          0.000e+00
          0.000e+00
          0.000e+00
          0.000e+00
          0.000e+00
          0.000e+00
          0.000e+00
          0.000e+00
          0.000e+00
          0.000e+00
          0.000e+00
          0.000e+00
          0.000e+00
          0.000e+00
          0.000e+00
          0.000e+00
          0.000e+00
          0.000e+00
          0.000e+00
          0.000e+00
          0.000e+00
          0.000e+00
          0.000e+00
          0.000e+00
          0.000e+00
          0.000e+00
          0.000e+00
          0.000e+00
          0.000e+00
          0.000e+00
          0.000e+00
          0.000e+00
          0.000e+00
          0.000e+00
          0.000e+00
          0.000e+00
          0.000e+00
          0.000e+00
          0.000e+00
          0.000e+00
          0.000e+00
          0.000e+00
          0.000e+00
          0.000e+00
          0.000e+00
          0.000e+00
          0.000e+00
          0.000e+00
          0.000e+00
          0.000e+00
          0.000e+00
          0.000e+00
          0.000e+00
          0.000e+00
          0.000e+00
          0.000e+00
          0.000e+00
          0.000e+00
          0.000e+00
          0.000e+00
          0.000e+00
          0.000e+00
          0.000e+00
          0.000e+00
          0.000e+00
          0.000e+00
          0.000e+00
          0.000e+00
          0.000e+00
          0.000e+00
          0.000e+00
          0.000e+00
          0.000e+00
          0.000e+00
          0.000e+00
          0.000e+00
          0.000e+00
          0.000e+00
          0.000e+00
          0.000e+00
          0.000e+00
          0.000e+00
          0.000e+00
          0.000e+00
          0.000e+00
          0.000e+00
          0.000e+00
          0.000e+00
          0.000e+00
          0.000e+00
          0.000e+00
          0.000e+00
          0.000e+00
          0.000e+00
          0.000e+00
          0.000e+00
          0.000e+00
          0.000e+00
          0.000e+00
          0.000e+00
          0.000e+00
          0.000e+00
          0.000e+00
          0.000e+00
          0.000e+00
          0.000e+00
          0.000e+00
          0.000e+00
          0.000e+00
          0.000e+00
          0.000e+00
          0.000e+00
          0.000e+00
          0.000e+00
          0.000e+00
          0.000e+00
          0.000e+00
          0.000e+00
          0.000e+00
          0.000e+00
          0.000e+00
          0.000e+00
          0.000e+00
          0.000e+00
          0.000e+00
          0.000e+00
          0.000e+00
          0.000e+00
          0.000e+00
          0.000e+00
          0.000e+00
          0.000e+00
          0.000e+00
          0.000e+00
          0.000e+00
          0.000e+00
          0.000e+00
          0.000e+00
          0.000e+00
          0.000e+00
          0.000e+00
          0.000e+00
          0.000e+00
          0.000e+00
          0.000e+00
          0.000e+00
          0.000e+00
          0.000e+00
          0.000e+00
          0.000e+00
          0.000e+00
          0.000e+00
          0.000e+00
          0.000e+00
          0.000e+00
          0.000e+00
          0.000e+00
          0.000e+00
          0.000e+00
          0.000e+00
          0.000e+00
          0.000e+00
          0.000e+00
          0.000e+00
          0.000e+00
          0.000e+00
          0.000e+00
          0.000e+00
          0.000e+00
          0.000e+00
          0.000e+00
          0.000e+00
          0.000e+00
          0.000e+00
          0.000e+00
          0.000e+00
          0.000e+00
          0.000e+00
          0.000e+00
          0.000e+00
          0.000e+00
          0.000e+00
          0.000e+00
          0.000e+00
          0.000e+00
          0.000e+00
          0.000e+00
          0.000e+00
          0.000e+00
          0.000e+00
          0.000e+00
          0.000e+00
          0.000e+00
          0.000e+00
          0.000e+00
          0.000e+00
          0.000e+00
          0.000e+00
          0.000e+00
          0.000e+00
          0.000e+00
          0.000e+00
          0.000e+00
          0.000e+00
          0.000e+00
          0.000e+00
          0.000e+00
          0.000e+00
          0.000e+00
          0.000e+00
          0.000e+00
          0.000e+00
          0.000e+00
          0.000e+00
          0.000e+00
          0.000e+00
          0.000e+00
          0.000e+00
          0.000e+00
          0.000e+00
          0.000e+00
          0.000e+00
          0.000e+00
          0.000e+00
          0.000e+00
          0.000e+00
          0.000e+00
          0.000e+00
          0.000e+00
          0.000e+00
          0.000e+00
          0.000e+00
          0.000e+00
          0.000e+00
          0.000e+00
          0.000e+00
          0.000e+00
          0.000e+00
          0.000e+00
          0.000e+00
          0.000e+00
          0.000e+00
          0.000e+00
          0.000e+00
          0.000e+00