<?xml version="1.0"?>
<VTKFile type="UnstructuredGrid" version="0.1" byte_order="LittleEndian" compressor="vtkZLibDataCompressor">
  <UnstructuredGrid>
    <Piece NumberOfPoints="2502" NumberOfCells="5000">
      <Points>
        <DataArray type="Float32" NumberOfComponents="3" format="ascii">
          1.510e+02 1.306e+02 1.248e+02
          1.512e+02 1.316e+02 1.248e+02
          1.523e+02 1.323e+02 1.248e+02
          1.525e+02 1.334e+02 1.246e+02
          1.534e+02 1.339e+02 1.248e+02
          1.510e+02 1.261e+02 1.260e+02
          1.512e+02 1.272e+02 1.259e+02
          1.509e+02 1.286e+02 1.255e+02
          1.503e+02 1.285e+02 1.257e+02
          1.508e+02 1.298e+02 1.250e+02
          1.517e+02 1.291e+02 1.255e+02
          1.504e+02 1.297e+02 1.253e+02
          1.501e+02 1.305e+02 1.252e+02
          1.518e+02 1.301e+02 1.251e+02
          1.522e+02 1.311e+02 1.250e+02
          1.504e+02 1.313e+02 1.251e+02
          1.504e+02 1.323e+02 1.250e+02
          1.526e+02 1.320e+02 1.251e+02
          1.515e+02 1.327e+02 1.247e+02
          1.532e+02 1.329e+02 1.249e+02
          1.539e+02 1.341e+02 1.250e+02
          1.520e+02 1.338e+02 1.248e+02
          1.530e+02 1.343e+02 1.248e+02
          1.536e+02 1.354e+02 1.251e+02
          1.540e+02 1.363e+02 1.255e+02
          1.504e+02 1.258e+02 1.268e+02
          1.520e+02 1.261e+02 1.265e+02
          1.503e+02 1.266e+02 1.263e+02
          1.518e+02 1.270e+02 1.262e+02
          1.502e+02 1.276e+02 1.260e+02
          1.520e+02 1.280e+02 1.261e+02
          1.499e+02 1.289e+02 1.261e+02
          1.525e+02 1.292e+02 1.261e+02
          1.500e+02 1.298e+02 1.257e+02
          1.526e+02 1.303e+02 1.258e+02
          1.499e+02 1.311e+02 1.258e+02
          1.503e+02 1.331e+02 1.256e+02
          1.499e+02 1.323e+02 1.257e+02
          1.531e+02 1.314e+02 1.257e+02
          1.509e+02 1.332e+02 1.251e+02
          1.509e+02 1.336e+02 1.257e+02
          1.539e+02 1.329e+02 1.257e+02
          1.542e+02 1.340e+02 1.254e+02
          1.516e+02 1.340e+02 1.253e+02
          1.542e+02 1.347e+02 1.254e+02
          1.522e+02 1.347e+02 1.252e+02
          1.518e+02 1.352e+02 1.258e+02
          1.526e+02 1.355e+02 1.253e+02
          1.532e+02 1.365e+02 1.253e+02
          1.539e+02 1.371e+02 1.255e+02
          1.507e+02 1.251e+02 1.277e+02
          1.514e+02 1.254e+02 1.270e+02
          1.523e+02 1.255e+02 1.276e+02
          1.500e+02 1.264e+02 1.268e+02
          1.527e+02 1.261e+02 1.275e+02
          1.498e+02 1.276e+02 1.268e+02
          1.526e+02 1.270e+02 1.271e+02
          1.497e+02 1.286e+02 1.268e+02
          1.528e+02 1.281e+02 1.270e+02
          1.531e+02 1.288e+02 1.270e+02
          1.497e+02 1.296e+02 1.268e+02
          1.497e+02 1.307e+02 1.268e+02
          1.533e+02 1.298e+02 1.268e+02
          1.498e+02 1.319e+02 1.267e+02
          1.536e+02 1.310e+02 1.269e+02
          1.500e+02 1.330e+02 1.268e+02
          1.538e+02 1.321e+02 1.267e+02
          1.508e+02 1.339e+02 1.265e+02
          1.543e+02 1.332e+02 1.262e+02
          1.514e+02 1.346e+02 1.260e+02
          1.545e+02 1.343e+02 1.261e+02
          1.514e+02 1.353e+02 1.263e+02
          1.517e+02 1.360e+02 1.261e+02
          1.545e+02 1.355e+02 1.258e+02
          1.524e+02 1.364e+02 1.257e+02
          1.520e+02 1.367e+02 1.263e+02
          1.553e+02 1.370e+02 1.265e+02
          1.527e+02 1.371e+02 1.258e+02
          1.547e+02 1.369e+02 1.258e+02
          1.554e+02 1.377e+02 1.260e+02
          1.545e+02 1.379e+02 1.256e+02
          1.533e+02 1.379e+02 1.256e+02
          1.524e+02 1.377e+02 1.262e+02
          1.546e+02 1.387e+02 1.258e+02
          1.539e+02 1.387e+02 1.259e+02
          1.511e+02 1.245e+02 1.308e+02
          1.511e+02 1.247e+02 1.292e+02
          1.505e+02 1.249e+02 1.286e+02
          1.504e+02 1.249e+02 1.297e+02
          1.515e+02 1.247e+02 1.288e+02
          1.499e+02 1.255e+02 1.286e+02
          1.524e+02 1.248e+02 1.286e+02
          1.499e+02 1.259e+02 1.276e+02
          1.534e+02 1.253e+02 1.283e+02
          1.497e+02 1.271e+02 1.278e+02
          1.534e+02 1.263e+02 1.280e+02
          1.496e+02 1.281e+02 1.278e+02
          1.534e+02 1.273e+02 1.279e+02
          1.539e+02 1.269e+02 1.285e+02
          1.496e+02 1.291e+02 1.278e+02
          1.535e+02 1.281e+02 1.277e+02
          1.539e+02 1.278e+02 1.284e+02
          1.496e+02 1.301e+02 1.278e+02
          1.539e+02 1.288e+02 1.278e+02
          1.497e+02 1.312e+02 1.277e+02
          1.540e+02 1.301e+02 1.277e+02
          1.498e+02 1.322e+02 1.278e+02
          1.544e+02 1.327e+02 1.273e+02
          1.505e+02 1.339e+02 1.273e+02
          1.506e+02 1.345e+02 1.273e+02
          1.547e+02 1.335e+02 1.269e+02
          1.509e+02 1.350e+02 1.268e+02
          1.552e+02 1.345e+02 1.269e+02
          1.510e+02 1.358e+02 1.271e+02
          1.507e+02 1.354e+02 1.277e+02
          1.553e+02 1.359e+02 1.267e+02
          1.555e+02 1.367e+02 1.270e+02
          1.512e+02 1.365e+02 1.271e+02
          1.521e+02 1.381e+02 1.266e+02
          1.526e+02 1.385e+02 1.263e+02
          1.552e+02 1.386e+02 1.260e+02
          1.531e+02 1.388e+02 1.261e+02
          1.526e+02 1.389e+02 1.265e+02
          1.546e+02 1.393e+02 1.263e+02
          1.536e+02 1.392e+02 1.264e+02
          1.514e+02 1.239e+02 1.317e+02
          1.514e+02 1.245e+02 1.304e+02
          1.507e+02 1.243e+02 1.314e+02
          1.519e+02 1.245e+02 1.301e+02
          1.526e+02 1.246e+02 1.300e+02
          1.534e+02 1.247e+02 1.302e+02
          1.498e+02 1.257e+02 1.298e+02
          1.497e+02 1.262e+02 1.293e+02
          1.537e+02 1.249e+02 1.295e+02
          1.497e+02 1.266e+02 1.287e+02
          1.496e+02 1.270e+02 1.294e+02
          1.541e+02 1.255e+02 1.293e+02
          1.496e+02 1.276e+02 1.287e+02
          1.496e+02 1.279e+02 1.295e+02
          1.542e+02 1.262e+02 1.290e+02
          1.496e+02 1.285e+02 1.287e+02
          1.496e+02 1.289e+02 1.294e+02
          1.544e+02 1.273e+02 1.291e+02
          1.496e+02 1.295e+02 1.287e+02
          1.496e+02 1.298e+02 1.294e+02
          1.545e+02 1.283e+02 1.290e+02
          1.496e+02 1.305e+02 1.286e+02
          1.497e+02 1.308e+02 1.293e+02
          1.544e+02 1.295e+02 1.285e+02
          1.547e+02 1.293e+02 1.291e+02
          1.497e+02 1.315e+02 1.286e+02
          1.498e+02 1.317e+02 1.294e+02
          1.545e+02 1.306e+02 1.284e+02
          1.546e+02 1.303e+02 1.290e+02
          1.500e+02 1.323e+02 1.288e+02
          1.503e+02 1.323e+02 1.296e+02
          1.543e+02 1.317e+02 1.279e+02
          1.504e+02 1.331e+02 1.281e+02
          1.551e+02 1.331e+02 1.282e+02
          1.555e+02 1.340e+02 1.280e+02
          1.506e+02 1.344e+02 1.283e+02
          1.555e+02 1.350e+02 1.276e+02
          1.506e+02 1.355e+02 1.285e+02
          1.556e+02 1.360e+02 1.277e+02
          1.557e+02 1.370e+02 1.276e+02
          1.508e+02 1.363e+02 1.281e+02
          1.510e+02 1.372e+02 1.278e+02
          1.557e+02 1.374e+02 1.268e+02
          1.516e+02 1.374e+02 1.270e+02
          1.558e+02 1.383e+02 1.265e+02
          1.555e+02 1.394e+02 1.266e+02
          1.519e+02 1.387e+02 1.272e+02
          1.528e+02 1.394e+02 1.270e+02
          1.538e+02 1.398e+02 1.270e+02
          1.516e+02 1.229e+02 1.328e+02
          1.509e+02 1.233e+02 1.324e+02
          1.520e+02 1.240e+02 1.317e+02
          1.504e+02 1.237e+02 1.324e+02
          1.527e+02 1.244e+02 1.313e+02
          1.501e+02 1.248e+02 1.312e+02
          1.542e+02 1.249e+02 1.306e+02
          1.540e+02 1.247e+02 1.316e+02
          1.496e+02 1.265e+02 1.301e+02
          1.545e+02 1.255e+02 1.303e+02
          1.496e+02 1.274e+02 1.302e+02
          1.547e+02 1.266e+02 1.302e+02
          1.496e+02 1.283e+02 1.302e+02
          1.549e+02 1.275e+02 1.300e+02
          1.550e+02 1.281e+02 1.299e+02
          1.496e+02 1.292e+02 1.301e+02
          1.550e+02 1.287e+02 1.296e+02
          1.497e+02 1.301e+02 1.301e+02
          1.550e+02 1.296e+02 1.296e+02
          1.498e+02 1.310e+02 1.300e+02
          1.551e+02 1.306e+02 1.295e+02
          1.503e+02 1.318e+02 1.300e+02
          1.505e+02 1.325e+02 1.302e+02
          1.550e+02 1.315e+02 1.290e+02
          1.505e+02 1.331e+02 1.294e+02
          1.506e+02 1.339e+02 1.295e+02
          1.561e+02 1.337e+02 1.291e+02
          1.506e+02 1.348e+02 1.294e+02
          1.560e+02 1.349e+02 1.285e+02
          1.506e+02 1.360e+02 1.292e+02
          1.559e+02 1.363e+02 1.284e+02
          1.561e+02 1.372e+02 1.282e+02
          1.507e+02 1.373e+02 1.286e+02
          1.560e+02 1.378e+02 1.276e+02
          1.510e+02 1.381e+02 1.280e+02
          1.510e+02 1.382e+02 1.286e+02
          1.562e+02 1.389e+02 1.273e+02
          1.522e+02 1.394e+02 1.279e+02
          1.558e+02 1.403e+02 1.275e+02
          1.548e+02 1.402e+02 1.271e+02
          1.543e+02 1.405e+02 1.276e+02
          1.529e+02 1.400e+02 1.278e+02
          1.536e+02 1.404e+02 1.277e+02
          1.549e+02 1.410e+02 1.281e+02
          1.516e+02 1.220e+02 1.332e+02
          1.510e+02 1.214e+02 1.335e+02
          1.522e+02 1.229e+02 1.330e+02
          1.505e+02 1.223e+02 1.331e+02
          1.499e+02 1.227e+02 1.337e+02
          1.527e+02 1.237e+02 1.327e+02
          1.500e+02 1.237e+02 1.329e+02
          1.533e+02 1.245e+02 1.317e+02
          1.538e+02 1.245e+02 1.329e+02
          1.497e+02 1.247e+02 1.325e+02
          1.496e+02 1.247e+02 1.332e+02
          1.544e+02 1.247e+02 1.325e+02
          1.497e+02 1.257e+02 1.312e+02
          1.549e+02 1.251e+02 1.316e+02
          1.496e+02 1.266e+02 1.312e+02
          1.551e+02 1.261e+02 1.312e+02
          1.496e+02 1.275e+02 1.312e+02
          1.553e+02 1.270e+02 1.310e+02
          1.496e+02 1.283e+02 1.312e+02
          1.553e+02 1.279e+02 1.307e+02
          1.554e+02 1.282e+02 1.313e+02
          1.498e+02 1.292e+02 1.311e+02
          1.554e+02 1.289e+02 1.305e+02
          1.499e+02 1.302e+02 1.309e+02
[...]
      <PointData Scalars="JD_Thresh">
        <DataArray type="Float32" Name="JD_Thresh" NumberOfComponents="1" format="ascii">
          0.000e+00
          0.000e+00
          0.000e+00
          0.000e+00
          0.000e+00
          0.000e+00
          0.000e+00
          0.000e+00
          0.000e+00
          0.000e+00
          0.000e+00
          0.000e+00
          0.000e+00
          0.000e+00
          0.000e+00
          0.000e+00
          0.000e+00
          0.000e+00
          0.000e+00
          0.000e+00
          0.000e+00
          0.000e+00
          0.000e+00
          0.000e+00
          0.000e+00
          0.000e+00
          0.000e+00
          0.000e+00
          0.000e+00
          0.000e+00
          0.000e+00
          0.000e+00
          0.000e+00
          0.000e+00
          0.000e+00
          0.000e+00
          0.000e+00
          0.000e+00
          0.000e+00
          0.000e+00
          0.000e+00
          0.000e+00
          0.000e+00
          0.000e+00
          0.000e+00
          0.000e+00
          0.000e+00
          0.000e+00
          0.000e+00
          0.000e+00
          0.000e+00
          0.000e+00
          0.000e+00
          0.000e+00
          0.000e+00
          0.000e+00
          0.000e+00
          0.000e+00
          0.000e+00
          0.000e+00
          0.000e+00
          0.000e+00
          0.000e+00
          0.000e+00
          0.000e+00
          0.000e+00
          0.000e+00
          0.000e+00
          0.000e+00
          0.000e+00
          0.000e+00
          0.000e+00
          0.000e+00
          0.000e+00
          0.000e+00
          0.000e+00
          0.000e+00
          0.000e+00
          0.000e+00
          0.000e+00
          0.000e+00
          0.000e+00
          0.000e+00
          0.000e+00
          0.000e+00
          0.000e+00
          0.000e+00
          0.000e+00
          0.000e+00
          0.000e+00
          0.000e+00
          0.000e+00
          0.000e+00
          0.000e+00
          0.000e+00
          0.000e+00
          0.000e+00
          0.000e+00
          0.000e+00
          0.000e+00
          0.000e+00
          0.000e+00
          0.000e+00
          0.000e+00
          0.000e+00
          0.000e+00
          0.000e+00
          0.000e+00
          0.000e+00
          0.000e+00
          0.000e+00
          0.000e+00
          0.000e+00
          0.000e+00
          0.000e+00
          0.000e+00
          0.000e+00
          0.000e+00
          0.000e+00
          0.000e+00
          0.000e+00
          0.000e+00
          0.000e+00
          0.000e+00
          0.000e+00
          0.000e+00
          0.000e+00
          0.000e+00
          0.000e+00
          0.000e+00
          0.000e+00
          0.000e+00
          0.000e+00
          0.000e+00
          0.000e+00
          0.000e+00
          0.000e+00
          0.000e+00
          0.000e+00
          0.000e+00
          0.000e+00
          0.000e+00
          0.000e+00
          0.000e+00
          0.000e+00
          0.000e+00
          0.000e+00
          0.000e+00
          0.000e+00
          0.000e+00
          0.000e+00
          0.000e+00
          0.000e+00
          0.000e+00
          0.000e+00
          0.000e+00
          0.000e+00
          0.000e+00
          0.000e+00
          0.000e+00
          0.000e+00
          0.000e+00
          0.000e+00
          0.000e+00
          0.000e+00
          0.000e+00
          0.000e+00
          0.000e+00
          0.000e+00
          0.000e+00
          0.000e+00
          0.000e+00
          0.000e+00
          0.000e+00
          0.000e+00
          0.000e+00
          0.000e+00
          0.000e+00
          0.000e+00
          0.000e+00
          0.000e+00
          0.000e+00
          0.000e+00
          0.000e+00
          0.000e+00
          0.000e+00
          0.000e+00
          0.000e+00
          0.000e+00
          0.000e+00
          0.000e+00
          0.000e+00
          0.000e+00
          0.000e+00
          0.000e+00
          0.000e+00
          0.000e+00
          0.000e+00
          0.000e+00
          0.000e+00
          0.000e+00
          0.000e+00
          0.000e+00
          0.000e+00
          0.000e+00
          0.000e+00
          0.000e+00
          0.000e+00
          0.000e+00
          0.000e+00
          0.000e+00
          0.000e+00
          0.000e+00
          0.000e+00
          0.000e+00
          0.000e+00
          0.000e+00
          0.000e+00
          0.000e+00
          0.000e+00
          0.000e+00
          0.000e+00
          0.000e+00
          0.000e+00
          0.000e+00
          0.000e+00
          0.000e+00
          0.000e+00
          0.000e+00
          0.000e+00
          0.000e+00
          0.000e+00
          0.000e+00
          0.000e+00
          0.000e+00
          0.000e+00
          0.000e+00
          0.000e+00
          0.000e+00
          0.000e+00
          0.000e+00
          0.000e+00
          0.000e+00
          0.000e+00
          0.000e+00
          0.000e+00
          0.000e+00
          0.000e+00
          0.000e+00
          0.000e+00
          0.000e+00
          0.000e+00
          0.000e+00
          0.000e+00
          0.000e+00
          0.000e+00
          0.000e+00
          0.000e+00
          0.000e+00
          0.000e+00
          0.000e+00
          0.000e+00
          0.000e+00
          0.000e+00
          0.000e+00
          0.000e+00
          0.000e+00
          0.000e+00
          0.000e+00
          0.000e+00
          0.000e+00
          0.000e+00
          0.000e+00
          0.000e+00
          0.000e+00
          0.000e+00
          0.000e+00
          0.000e+00
          0.000e+00
          0.000e+00
          0.000e+00
          0.000e+00
          0.000e+00
          0.000e+00
          0.000e+00
          0.000e+00
          0.000e+00
          0.000e+00
          0.000e+00
          0.000e+00
          0.000e+00
          0.000e+00
          0.000e+00
          0.000e+00
          0.000e+00
          0.000e+00
          0.000e+00
          0.000e+00
          0.000e+00
          0.000e+00
          0.000e+00
          0.000e+00
          0.000e+00
          0.000e+00
          0.000e+00
          0.000e+00
          0.000e+00
          0.000e+00
          0.000e+00
          0.000e+00
          0.000e+00
          0.000e+00
          0.000e+00
          0.000e+00
          0.000e+00
          0.000e+00
          0.000e+00
          0.000e+00
          0.000e+00
          0.000e+00
          0.000e+00
          0.000e+00
          0.000e+00
          0.000e+00
          0.000e+00
          0.000e+00
          0.000e+00
          0.000e+00
          0.000e+00
          0.000e+00
          0.000e+00
          0.000e+00
          0.000e+00
          0.000e+00
          0.000e+00
          0.000e+00
          0.000e+00
          0.000e+00
          0.000e+00
          0.000e+00
          0.000e+00
          0.000e+00
          0.000e+00
          0.000e+00
          0.000e+00
          0.000e+00
          0.000e+00
          0.000e+00
          0.000e+00
          0.000e+00
          0.000e+00
          0.000e+00
          0.000e+00
          0.000e+00
          0.000e+00
          0.000e+00
          0.000e+00
          0.000e+00
          0.000e+00
          0.000e+00
          0.000e+00
          0.000e+00
          0.000e+00
          0.000e+00
          0.000e+00
          0.000e+00
          0.000e+00
          0.000e+00
          0.000e+00
          0.000e+00
          0.000e+00
          0.000e+00
          0.000e+00
          0.000e+00
          0.000e+00
          0.000e+00
          0.000e+00
          0.000e+00
          0.000e+00
          0.000e+00
          0.000e+00
          0.000e+00
          0.000e+00
          0.000e+00
          0.000e+00
          0.000e+00
          0.000e+00
          0.000e+00
          0.000e+00
          0.000e+00
          0.000e+00
          0.000e+00
          0.000e+00
          0.000e+00
          0.000e+00
          0.000e+00
          0.000e+00
          0.000e+00
          0.000e+00
          0.000e+00
          0.000e+00
          0.000e+00
          0.000e+00
          0.000e+00
          0.000e+00
          0.000e+00
          0.000e+00
          0.000e+00
          0.000e+00
          0.000e+00
          0.000e+00
          0.000e+00
          0.000e+00
          0.000e+00
          0.000e+00
          0.000e+00
          0.000e+00
          0.000e+00
          0.000e+00
          0.000e+00
          0.000e+00
          0.000e+00
          0.000e+00
          0.000e+00
          0.000e+00
          0.000e+00
          0.000e+00
          0.000e+00
          0.000e+00
          0.000e+00
          0.000e+00
          0.000e+00
          0.000e+00
          0.000e+00
          0.000e+00
          0.000e+00
          0.000e+00
          0.000e+00
          0.000e+00
          0.000e+00
          0.000e+00
          0.000e+00
          0.000e+00
          0.000e+00
          0.000e+00
          0.000e+00
          0.000e+00
          0.000e+00
          0.000e+00
          0.000e+00
          0.000e+00
          0.000e+00
          0.000e+00
          0.000e+00
          0.000e+00
          0.000e+00
          0.000e+00
          0.000e+00
          0.000e+00
          0.000e+00
          0.000e+00
          0.000e+00
          0.000e+00
          0.000e+00
          0.000e+00
          0.000e+00
          0.000e+00
          0.000e+00
          0.000e+00
          0.000e+00
          0.000e+00
          0.000e+00
          0.000e+00
          0.000e+00
          0.000e+00
          0.000e+00
          0.000e+00
          0.000e+00
          0.000e+00
          0.000e+00
          0.000e+00
          0.000e+00
          0.000e+00
          0.000e+00
          0.000e+00
          0.000e+00
          0.000e+00
          0.000e+00
          0.000e+00
          0.000e+00
          0.000e+00
          0.000e+00
          0.000e+00
          0.000e+00
          0.000e+00
          0.000e+00
          0.000e+00
          0.000e+00
          0.000e+00
          0.000e+00
          0.000e+00
          0.000e+00
          0.000e+00
          0.000e+00
          0.000e+00
          0.000e+00
          0.000e+00
          0.000e+00
          0.000e+00
          0.000e+00
          0.000e+00
          0.000e+00
          0.000e+00
          0.000e+00
          0.000e+00
          0.000e+00
          0.000e+00
          0.000e+00
          0.000e+00
          0.000e+00
          0.000e+00
          0.000e+00
          0.000e+00
          0.000e+00
          0.000e+00
          0.000e+00
          0.000e+00
          0.000e+00
          0.000e+00
          0.000e+00
          0.000e+00
          0.000e+00
          0.000e+00
          0.000e+00
          0.000e+00
          0.000e+00
          0.000e+00
          0.000e+00
          0.000e+00
          0.000e+00
          0.000e+00
          0.000e+00
          0.000e+00
          0.000e+00
          0.000e+00
          0.000e+00
          0.000e+00
          0.000e+00
          0.000e+00
          0.000e+00
          0.000e+00
          0.000e+00
          0.000e+00
          0.000e+00
          0.000e+00
          0.000e+00
          0.000e+00
          0.000e+00
          0.000e+00
          0.000e+00
          0.000e+00
          0.000e+00
          0.000e+00
          0.000e+00
          0.000e+00
          0.000e+00
          0.000e+00
          0.000e+00
          0.000e+00
          0.000e+00
          0.000e+00
          0.000e+00
          0.000e+00
          0.000e+00
          0.000e+00
          0.000e+00
          0.000e+00
          0.000e+00
          0.000e+00
          0.000e+00
          0.000e+00
          0.000e+00
          0.000e+00
          0.000e+00
          0.000e+00
          0.000e+00
          0.000e+00
          0.000e+00
          0.000e+00
          0.000e+00
          0.000e+00
          0.000e+00
          0.000e+00
          0.000e+00
          0.000e+00
          0.000e+00
          0.000e+00
          0.000e+00
          0.000e+00
          0.000e+00
          0.000e+00
          0.000e+00
          0.000e+00
          0.000e+00
          0.000e+00
          0.000e+00
          0.000e+00
          0.000e+00
          0.000e+00
          0.000e+00
          0.000e+00
          0.000e+00
          0.000e+00
          0.000e+00
          0.000e+00
          0.000e+00
          0.000e+00
          0.000e+00
          0.000e+00
          0.000e+00
          0.000e+00
          0.000e+00
          0.000e+00
          0.000e+00
          0.000e+00
          0.000e+00
          0.000e+00
          0.000e+00
          0.000e+00
          0.000e+00
          0.000e+00
          0.000e+00
          0.000e+00
          0.000e+00
          0.000e+00
          0.000e+00
          0.000e+00
          0.000e+00
          0.000e+00
          0.000e+00
          0.000e+00
          0.000e+00
          0.000e+00
          0.000e+00
          0.000e+00
          0.000e+00
          0.000e+00
          0.000e+00
          0.000e+00
          0.000e+00
          0.000e+00
          0.000e+00
          0.000e+00
          0.000e+00
          0.000e+00
          0.000e+00
          0.000e+00
          0.000e+00
          0.000e+00
          0.000e+00
          0.000e+00
          0.000e+00
          0.000e+00
          0.000e+00
          0.000e+00
          0.000e+00
          0.000e+00
          0.000e+00
          0.000e+00
          0.000e+00
          0.000e+00
          0.000e+00
          0.000e+00
          0.000e+00
          0.000e+00
          0.000e+00
          0.000e+00
          0.000e+00
          0.000e+00
          0.000e+00
          0.000e+00
          0.000e+00
          0.000e+00
          0.000e+00
          0.000e+00
          0.000e+00
          0.000e+00
          0.000e+00
          0.000e+00
          0.000e+00
          0.000e+00
          0.000e+00
          0.000e+00
          0.000e+00
          0.000e+00
          0.000e+00
          0.000e+00
          0.000e+00
          0.000e+00
          0.000e+00
          0.000e+00
          0.000e+00
          0.000e+00
          0.000e+00
          0.000e+00
          0.000e+00
          0.000e+00
          0.000e+00
          0.000e+00
          0.000e+00
          0.000e+00
          0.000e+00
          0.000e+00
          0.000e+00
          0.000e+00
          0.000e+00
          0.000e+00
          0.000e+00
          0.000e+00
          0.000e+00
          0.000e+00
          0.000e+00
          0.000e+00
          0.000e+00
          0.000e+00
          0.000e+00
          0.000e+00
          0.000e+00
          0.000e+00
          0.000e+00
          0.000e+00
          0.000e+00
          0.000e+00
          0.000e+00
          0.000e+00
          0.000e+00
          0.000e+00
          0.000e+00
          0.000e+00
          0.000e+00
          0.000e+00
          0.000e+00
          0.000e+00
          0.000e+00
          0.000e+00
          0.000e+00
          0.000e+00
          0.000e+00
          0.000e+00
          0.000e+00
          0.000e+00
          0.000e+00
          0.000e+00
          0.000e+00
          0.000e+00
          0.000e+00
          0.000e+00
          0.000e+00
          0.000e+00
          0.000e+00
          0.000e+00
          0.000e+00
          0.000e+00
          0.000e+00
          0.000e+00
          0.000e+00
          0.000e+00
          0.000e+00
          0.000e+00
          0.000e+00
          0.000e+00
          0.000e+00
          0.000e+00
          0.000e+00
          0.000e+00
          0.000e+00
          0.000e+00
          0.000e+00
          0.000e+00
          0.000e+00
          0.000e+00
          0.000e+00
          0.000e+00
          0.000e+00
          0.000e+00
          0.000e+00
          0.000e+00
          0.000e+00
          0.000e+00
          0.000e+00
          0.000e+00
          0.000e+00
          0.000e+00
          0.000e+00
          0.000e+00
          0.000e+00
          0.000e+00
          0.000e+00
          0.000e+00
          0.000e+00
          0.000e+00
          0.000e+00
          0.000e+00
          0.000e+00
          0.000e+00
          0.000e+00
          0.000e+00
          0.000e+00
          0.000e+00
          0.000e+00
          0.000e+00
          0.000e+00
          0.000e+00
          0.000e+00
          0.000e+00
          0.000e+00
          0.000e+00
          0.000e+00
          0.000e+00
          0.000e+00
          0.000e+00
          0.000e+00
          0.000e+00
          0.000e+00
          0.000e+00
          0.000e+00
          0.000e+00
          0.000e+00
          0.000e+00
          0.000e+00
          0.000e+00
          0.000e+00
          0.000e+00
          0.000e+00
          0.000e+00
          0.000e+00
          0.000e+00
          0.000e+00
          0.000e+00
          0.000e+00
          0.000e+00
          0.000e+00
          0.000e+00
          0.000e+00
          0.000e+00
          0.000e+00
          0.000e+00
          0.000e+00
          0.000e+00
          0.000e+00
          0.000e+00
          0.000e+00
          0.000e+00
          0.000e+00
          0.000e+00
          0.000e+00
          0.000e+00
          0.000e+00
          0.000e+00
          0.000e+00
          0.000e+00
          0.000e+00
          0.000e+00
          0.000e+00
          0.000e+00
          0.000e+00
          0.000e+00
          0.000e+00
          0.000e+00
          0.000e+00
          0.000e+00
          0.000e+00
          0.000e+00
          0.000e+00
          0.000e+00
          0.000e+00
          0.000e+00
          0.000e+00
          0.000e+00
          0.000e+00
          0.000e+00
          0.000e+00
          0.000e+00
          0.000e+00
          0.000e+00
          0.000e+00
          0.000e+00
          0.000e+00
          0.000e+00
          0.000e+00
          0.000e+00
          0.000e+00
          0.000e+00
          0.000e+00
          0.000e+00
          0.000e+00
          0.000e+00
          0.000e+00
          0.000e+00
          0.000e+00
          0.000e+00
          0.000e+00
          0.000e+00
          0.000e+00
          0.000e+00
          0.000e+00
          0.000e+00
          0.000e+00
          0.000e+00
          0.000e+00
          0.000e+00
          0.000e+00
          0.000e+00
          0.000e+00
          0.000e+00
          0.000e+00
          0.000e+00
          0.000e+00
          0.000e+00
          0.000e+00
          0.000e+00
          0.000e+00
          0.000e+00
          0.000e+00
          0.000e+00
          0.000e+00
          0.000e+00
          0.000e+00
          0.000e+00
          0.000e+00
          0.000e+00
          0.000e+00
          0.000e+00
          0.000e+00
          0.000e+00
          0.000e+00
          0.000e+00
          0.000e+00
          0.000e+00
          0.000e+00
          0.000e+00
          0.000e+00
          0.000e+00
          0.000e+00
          0.000e+00
          0.000e+00
          0.000e+00
          0.000e+00
          0.000e+00
          0.000e+00
          0.000e+00
          0.000e+00
          0.000e+00
          0.000e+00
          0.000e+00
          0.000e+00
          0.000e+00
          0.000e+00
          0.000e+00
          0.000e+00
          0.000e+00
          0.000e+00
          0.000e+00
          0.000e+00
          0.000e+00
          0.000e+00
          0.000e+00
          0.000e+00
          0.000e+00
          0.000e+00
          0.000e+00
          0.000e+00
          0.000e+00
          0.000e+00
          0.000e+00
          0.000e+00
          0.000e+00
          0.000e+00
          0.000e+00
          0.000e+00
          0.000e+00
          0.000e+00
          0.000e+00
          0.000e+00
          0.000e+00
          0.000e+00
          0.000e+00
          0.000e+00
          0.000e+00
          0.000e+00
          0.000e+00
          0.000e+00
          0.000e+00