<?xml version="1.0"?>
<VTKFile type="UnstructuredGrid" version="0.1" byte_order="LittleEndian" compressor="vtkZLibDataCompressor">
  <UnstructuredGrid>
    <Piece NumberOfPoints="1368" NumberOfCells="2732">
      <Points>
        <DataArray type="Float32" NumberOfComponents="3" format="ascii">
          1.492e+02 1.442e+02 1.353e+02
          1.485e+02 1.440e+02 1.355e+02
          1.494e+02 1.441e+02 1.355e+02
          1.496e+02 1.439e+02 1.364e+02
          1.487e+02 1.438e+02 1.358e+02
          1.481e+02 1.436e+02 1.367e+02
          1.471e+02 1.436e+02 1.368e+02
          1.498e+02 1.444e+02 1.352e+02
          1.508e+02 1.446e+02 1.359e+02
          1.491e+02 1.445e+02 1.350e+02
          1.481e+02 1.439e+02 1.357e+02
          1.481e+02 1.441e+02 1.354e+02
          1.472e+02 1.440e+02 1.359e+02
          1.462e+02 1.440e+02 1.365e+02
          1.524e+02 1.455e+02 1.375e+02
          1.519e+02 1.454e+02 1.370e+02
          1.514e+02 1.451e+02 1.363e+02
          1.510e+02 1.452e+02 1.350e+02
          1.499e+02 1.449e+02 1.343e+02
          1.478e+02 1.448e+02 1.349e+02
          1.465e+02 1.447e+02 1.356e+02
          1.527e+02 1.458e+02 1.372e+02
          1.496e+02 1.443e+02 1.375e+02
          1.486e+02 1.437e+02 1.373e+02
          1.476e+02 1.436e+02 1.373e+02
          1.501e+02 1.442e+02 1.368e+02
          1.506e+02 1.445e+02 1.368e+02
          1.505e+02 1.445e+02 1.376e+02
          1.472e+02 1.436e+02 1.375e+02
          1.464e+02 1.437e+02 1.370e+02
          1.527e+02 1.456e+02 1.378e+02
          1.523e+02 1.452e+02 1.378e+02
          1.522e+02 1.450e+02 1.384e+02
          1.511e+02 1.446e+02 1.370e+02
          1.517e+02 1.449e+02 1.373e+02
          1.515e+02 1.447e+02 1.381e+02
          1.459e+02 1.440e+02 1.372e+02
          1.458e+02 1.443e+02 1.367e+02
          1.455e+02 1.445e+02 1.375e+02
          1.446e+02 1.447e+02 1.380e+02
          1.440e+02 1.450e+02 1.380e+02
          1.527e+02 1.457e+02 1.376e+02
          1.517e+02 1.457e+02 1.365e+02
          1.511e+02 1.458e+02 1.353e+02
          1.502e+02 1.454e+02 1.344e+02
          1.484e+02 1.454e+02 1.346e+02
          1.469e+02 1.454e+02 1.351e+02
          1.460e+02 1.447e+02 1.361e+02
          1.461e+02 1.452e+02 1.359e+02
          1.457e+02 1.449e+02 1.366e+02
          1.453e+02 1.454e+02 1.372e+02
          1.447e+02 1.454e+02 1.376e+02
          1.529e+02 1.459e+02 1.373e+02
          1.531e+02 1.464e+02 1.376e+02
          1.524e+02 1.459e+02 1.369e+02
          1.529e+02 1.461e+02 1.371e+02
          1.520e+02 1.462e+02 1.366e+02
          1.514e+02 1.463e+02 1.362e+02
          1.528e+02 1.468e+02 1.372e+02
          1.504e+02 1.445e+02 1.384e+02
          1.495e+02 1.443e+02 1.385e+02
          1.486e+02 1.440e+02 1.382e+02
          1.477e+02 1.436e+02 1.383e+02
          1.524e+02 1.452e+02 1.389e+02
          1.510e+02 1.446e+02 1.384e+02
          1.518e+02 1.448e+02 1.388e+02
          1.471e+02 1.436e+02 1.384e+02
          1.465e+02 1.436e+02 1.380e+02
          1.464e+02 1.436e+02 1.387e+02
          1.457e+02 1.439e+02 1.381e+02
          1.457e+02 1.436e+02 1.388e+02
          1.448e+02 1.444e+02 1.382e+02
          1.440e+02 1.448e+02 1.382e+02
          1.525e+02 1.452e+02 1.385e+02
          1.530e+02 1.457e+02 1.384e+02
          1.436e+02 1.449e+02 1.383e+02
          1.438e+02 1.451e+02 1.381e+02
          1.531e+02 1.460e+02 1.379e+02
          1.532e+02 1.465e+02 1.379e+02
          1.532e+02 1.463e+02 1.384e+02
          1.502e+02 1.462e+02 1.351e+02
          1.489e+02 1.461e+02 1.349e+02
          1.473e+02 1.462e+02 1.353e+02
          1.464e+02 1.461e+02 1.362e+02
          1.456e+02 1.459e+02 1.368e+02
          1.449e+02 1.461e+02 1.375e+02
          1.441e+02 1.455e+02 1.379e+02
          1.443e+02 1.458e+02 1.378e+02
          1.435e+02 1.460e+02 1.382e+02
          1.429e+02 1.461e+02 1.386e+02
          1.532e+02 1.468e+02 1.379e+02
          1.531e+02 1.467e+02 1.376e+02
          1.520e+02 1.468e+02 1.368e+02
          1.509e+02 1.465e+02 1.358e+02
          1.511e+02 1.468e+02 1.363e+02
          1.503e+02 1.468e+02 1.359e+02
          1.494e+02 1.468e+02 1.357e+02
          1.481e+02 1.468e+02 1.358e+02
          1.469e+02 1.468e+02 1.363e+02
          1.458e+02 1.469e+02 1.370e+02
          1.450e+02 1.469e+02 1.375e+02
          1.441e+02 1.468e+02 1.380e+02
          1.433e+02 1.471e+02 1.384e+02
          1.529e+02 1.470e+02 1.374e+02
          1.531e+02 1.474e+02 1.378e+02
          1.527e+02 1.467e+02 1.371e+02
          1.526e+02 1.471e+02 1.373e+02
          1.509e+02 1.448e+02 1.394e+02
          1.500e+02 1.445e+02 1.392e+02
          1.491e+02 1.443e+02 1.394e+02
          1.487e+02 1.440e+02 1.399e+02
          1.482e+02 1.438e+02 1.393e+02
          1.479e+02 1.436e+02 1.400e+02
          1.472e+02 1.436e+02 1.392e+02
          1.470e+02 1.436e+02 1.400e+02
          1.462e+02 1.436e+02 1.395e+02
          1.464e+02 1.436e+02 1.401e+02
          1.525e+02 1.456e+02 1.396e+02
          1.513e+02 1.448e+02 1.391e+02
          1.521e+02 1.452e+02 1.394e+02
          1.454e+02 1.436e+02 1.393e+02
          1.448e+02 1.438e+02 1.389e+02
          1.448e+02 1.437e+02 1.395e+02
          1.439e+02 1.443e+02 1.387e+02
          1.533e+02 1.462e+02 1.389e+02
          1.532e+02 1.463e+02 1.394e+02
          1.527e+02 1.456e+02 1.391e+02
          1.530e+02 1.459e+02 1.391e+02
          1.530e+02 1.459e+02 1.396e+02
          1.433e+02 1.444e+02 1.390e+02
          1.428e+02 1.455e+02 1.387e+02
          1.533e+02 1.465e+02 1.385e+02
          1.425e+02 1.459e+02 1.388e+02
          1.426e+02 1.464e+02 1.387e+02
          1.420e+02 1.464e+02 1.390e+02
          1.416e+02 1.466e+02 1.396e+02
          1.533e+02 1.471e+02 1.383e+02
          1.517e+02 1.478e+02 1.371e+02
          1.512e+02 1.475e+02 1.368e+02
          1.501e+02 1.477e+02 1.365e+02
          1.488e+02 1.475e+02 1.364e+02
          1.475e+02 1.475e+02 1.367e+02
          1.463e+02 1.477e+02 1.371e+02
          1.454e+02 1.477e+02 1.376e+02
          1.446e+02 1.476e+02 1.379e+02
          1.439e+02 1.478e+02 1.383e+02
          1.429e+02 1.472e+02 1.386e+02
          1.434e+02 1.477e+02 1.385e+02
          1.424e+02 1.472e+02 1.388e+02
          1.419e+02 1.475e+02 1.391e+02
          1.414e+02 1.473e+02 1.395e+02
          1.532e+02 1.477e+02 1.380e+02
          1.529e+02 1.476e+02 1.377e+02
          1.523e+02 1.474e+02 1.372e+02
          1.525e+02 1.478e+02 1.375e+02
          1.501e+02 1.485e+02 1.371e+02
          1.491e+02 1.484e+02 1.370e+02
          1.480e+02 1.482e+02 1.371e+02
          1.469e+02 1.483e+02 1.374e+02
          1.459e+02 1.485e+02 1.378e+02
          1.450e+02 1.485e+02 1.381e+02
          1.444e+02 1.486e+02 1.384e+02
          1.437e+02 1.486e+02 1.386e+02
          1.493e+02 1.442e+02 1.406e+02
          1.484e+02 1.437e+02 1.406e+02
          1.475e+02 1.436e+02 1.406e+02
          1.466e+02 1.436e+02 1.405e+02
          1.512e+02 1.451e+02 1.400e+02
          1.494e+02 1.444e+02 1.401e+02
          1.502e+02 1.447e+02 1.400e+02
          1.500e+02 1.446e+02 1.405e+02
          1.460e+02 1.436e+02 1.403e+02
          1.453e+02 1.436e+02 1.401e+02
          1.455e+02 1.436e+02 1.406e+02
          1.533e+02 1.465e+02 1.395e+02
          1.530e+02 1.461e+02 1.399e+02
          1.525e+02 1.459e+02 1.402e+02
          1.516e+02 1.452e+02 1.398e+02
          1.520e+02 1.455e+02 1.401e+02
          1.445e+02 1.437e+02 1.399e+02
          1.439e+02 1.438e+02 1.394e+02
          1.441e+02 1.437e+02 1.402e+02
          1.533e+02 1.465e+02 1.392e+02
          1.533e+02 1.468e+02 1.395e+02
          1.532e+02 1.465e+02 1.398e+02
          1.433e+02 1.440e+02 1.402e+02
          1.428e+02 1.447e+02 1.396e+02
          1.422e+02 1.456e+02 1.393e+02
          1.417e+02 1.462e+02 1.395e+02
          1.534e+02 1.470e+02 1.388e+02
          1.415e+02 1.463e+02 1.398e+02
          1.535e+02 1.476e+02 1.386e+02
          1.516e+02 1.485e+02 1.375e+02
          1.508e+02 1.484e+02 1.372e+02
          1.423e+02 1.482e+02 1.391e+02
          1.416e+02 1.480e+02 1.394e+02
          1.411e+02 1.470e+02 1.397e+02
          1.411e+02 1.475e+02 1.398e+02
          1.534e+02 1.482e+02 1.383e+02
          1.531e+02 1.482e+02 1.380e+02
          1.522e+02 1.483e+02 1.375e+02
          1.526e+02 1.485e+02 1.377e+02
          1.519e+02 1.488e+02 1.377e+02
          1.505e+02 1.488e+02 1.374e+02
          1.511e+02 1.490e+02 1.377e+02
          1.499e+02 1.493e+02 1.375e+02
          1.487e+02 1.491e+02 1.375e+02
          1.475e+02 1.491e+02 1.377e+02
          1.463e+02 1.492e+02 1.380e+02
          1.456e+02 1.494e+02 1.383e+02
          1.448e+02 1.495e+02 1.385e+02
          1.440e+02 1.494e+02 1.387e+02
          1.430e+02 1.485e+02 1.389e+02
          1.433e+02 1.492e+02 1.389e+02
          1.498e+02 1.501e+02 1.380e+02
          1.490e+02 1.499e+02 1.379e+02
          1.478e+02 1.498e+02 1.380e+02
          1.469e+02 1.500e+02 1.383e+02
          1.460e+02 1.502e+02 1.385e+02
          1.451e+02 1.504e+02 1.387e+02
          1.443e+02 1.502e+02 1.389e+02
          1.436e+02 1.500e+02 1.391e+02
          1.501e+02 1.447e+02 1.410e+02
          1.493e+02 1.442e+02 1.413e+02
          1.486e+02 1.438e+02 1.412e+02
          1.477e+02 1.437e+02 1.412e+02
          1.467e+02 1.437e+02 1.411e+02
          1.458e+02 1.436e+02 1.410e+02
          1.505e+02 1.449e+02 1.406e+02
          1.511e+02 1.453e+02 1.407e+02
          1.452e+02 1.436e+02 1.410e+02
          1.446e+02 1.437e+02 1.406e+02
          1.447e+02 1.437e+02 1.413e+02
          1.527e+02 1.463e+02 1.405e+02
          1.516e+02 1.455e+02 1.405e+02
          1.522e+02 1.459e+02 1.406e+02
          1.439e+02 1.437e+02 1.409e+02
          1.534e+02 1.472e+02 1.397e+02
          1.531e+02 1.465e+02 1.401e+02
          1.532e+02 1.467e+02 1.400e+02
          1.530e+02 1.467e+02 1.404e+02
          1.430e+02 1.438e+02 1.411e+02
[...]
      <PointData Scalars="JD_Thresh">
        <DataArray type="Float32" Name="JD_Thresh" NumberOfComponents="1" format="ascii">
          0.000e+00
          0.000e+00
          0.000e+00
          0.000e+00
          0.000e+00
          0.000e+00
          0.000e+00
          0.000e+00
          0.000e+00
          0.000e+00
          0.000e+00
          0.000e+00
          0.000e+00
          0.000e+00
          0.000e+00
          0.000e+00
          0.000e+00
          0.000e+00
          0.000e+00
          0.000e+00
          0.000e+00
          0.000e+00
          0.000e+00
          0.000e+00
          0.000e+00
          0.000e+00
          0.000e+00
          0.000e+00
          0.000e+00
          0.000e+00
          0.000e+00
          0.000e+00
          0.000e+00
          0.000e+00
          0.000e+00
          0.000e+00
          0.000e+00
          0.000e+00
          0.000e+00
          0.000e+00
          0.000e+00
          0.000e+00
          0.000e+00
          0.000e+00
          0.000e+00
          0.000e+00
          0.000e+00
          0.000e+00
          0.000e+00
          0.000e+00
          0.000e+00
          0.000e+00
          0.000e+00
          0.000e+00
          0.000e+00
          0.000e+00
          0.000e+00
          0.000e+00
          0.000e+00
          0.000e+00
          0.000e+00
          0.000e+00
          0.000e+00
          0.000e+00
          0.000e+00
          0.000e+00
          0.000e+00
          0.000e+00
          0.000e+00
          0.000e+00
          0.000e+00
          0.000e+00
          0.000e+00
          0.000e+00
          0.000e+00
          0.000e+00
          0.000e+00
          0.000e+00
          0.000e+00
          0.000e+00
          0.000e+00
          0.000e+00
          0.000e+00
          0.000e+00
          0.000e+00
          0.000e+00
          0.000e+00
          0.000e+00
          0.000e+00
          0.000e+00
          0.000e+00
          0.000e+00
          0.000e+00
          0.000e+00
          0.000e+00
          0.000e+00
          0.000e+00
          0.000e+00
          0.000e+00
          0.000e+00
          0.000e+00
          0.000e+00
          0.000e+00
          0.000e+00
          0.000e+00
          0.000e+00
          0.000e+00
          0.000e+00
          0.000e+00
          0.000e+00
          0.000e+00
          0.000e+00
          0.000e+00
          0.000e+00
          0.000e+00
          0.000e+00
          0.000e+00
          0.000e+00
          0.000e+00
          0.000e+00
          0.000e+00
          0.000e+00
          0.000e+00
          0.000e+00
          0.000e+00
          0.000e+00
          0.000e+00
          0.000e+00
          0.000e+00
          0.000e+00
          0.000e+00
          0.000e+00
          0.000e+00
          0.000e+00
          0.000e+00
          0.000e+00
          0.000e+00
          0.000e+00
          0.000e+00
          0.000e+00
          0.000e+00
          0.000e+00
          0.000e+00
          0.000e+00
          0.000e+00
          0.000e+00
          0.000e+00
          0.000e+00
          0.000e+00
          0.000e+00
          0.000e+00
          0.000e+00
          0.000e+00
          0.000e+00
          0.000e+00
          0.000e+00
          0.000e+00
          0.000e+00
          0.000e+00
          0.000e+00
          0.000e+00
          0.000e+00
          0.000e+00
          0.000e+00
          0.000e+00
          0.000e+00
          0.000e+00
          0.000e+00
          0.000e+00
          0.000e+00
          0.000e+00
          0.000e+00
          0.000e+00
          0.000e+00
          0.000e+00
          0.000e+00
          0.000e+00
          0.000e+00
          0.000e+00
          0.000e+00
          0.000e+00
          0.000e+00
          0.000e+00
          0.000e+00
          0.000e+00
          0.000e+00
          0.000e+00
          0.000e+00
          0.000e+00
          0.000e+00
          0.000e+00
          0.000e+00
          0.000e+00
          0.000e+00
          0.000e+00
          0.000e+00
          0.000e+00
          0.000e+00
          0.000e+00
          0.000e+00
          0.000e+00
          0.000e+00
          0.000e+00
          0.000e+00
          0.000e+00
          0.000e+00
          0.000e+00
          0.000e+00
          0.000e+00
          0.000e+00
          0.000e+00
          0.000e+00
          0.000e+00
          0.000e+00
          0.000e+00
          0.000e+00
          0.000e+00
          0.000e+00
          0.000e+00
          0.000e+00
          0.000e+00
          0.000e+00
          0.000e+00
          0.000e+00
          0.000e+00
          0.000e+00
          0.000e+00
          0.000e+00
          0.000e+00
          0.000e+00
          0.000e+00
          0.000e+00
          0.000e+00
          0.000e+00
          0.000e+00
          0.000e+00
          0.000e+00
          0.000e+00
          0.000e+00
          0.000e+00
          0.000e+00
          0.000e+00
          0.000e+00
          0.000e+00
          0.000e+00
          0.000e+00
          0.000e+00
          0.000e+00
          0.000e+00
          0.000e+00
          0.000e+00
          0.000e+00
          0.000e+00
          0.000e+00
          0.000e+00
          0.000e+00
          0.000e+00
          0.000e+00
          0.000e+00
          0.000e+00
          0.000e+00
          0.000e+00
          0.000e+00
          0.000e+00
          0.000e+00
          0.000e+00
          0.000e+00
          0.000e+00
          0.000e+00
          0.000e+00
          0.000e+00
          0.000e+00
          0.000e+00
          0.000e+00
          0.000e+00
          0.000e+00
          0.000e+00
          0.000e+00
          0.000e+00
          0.000e+00
          0.000e+00
          0.000e+00
          0.000e+00
          0.000e+00
          0.000e+00
          0.000e+00
          0.000e+00
          0.000e+00
          0.000e+00
          0.000e+00
          0.000e+00
          0.000e+00
          0.000e+00
          0.000e+00
          0.000e+00
          0.000e+00
          0.000e+00
          0.000e+00
          0.000e+00
          0.000e+00
          0.000e+00
          0.000e+00
          0.000e+00
          0.000e+00
          0.000e+00
          0.000e+00
          0.000e+00
          0.000e+00
          0.000e+00
          0.000e+00
          0.000e+00
          0.000e+00
          0.000e+00
          0.000e+00
          0.000e+00
          0.000e+00
          0.000e+00
          0.000e+00
          0.000e+00
          0.000e+00
          0.000e+00
          0.000e+00
          0.000e+00
          0.000e+00
          0.000e+00
          0.000e+00
          0.000e+00
          0.000e+00
          0.000e+00
          0.000e+00
          0.000e+00
          0.000e+00
          0.000e+00
          0.000e+00
          0.000e+00
          0.000e+00
          0.000e+00
          0.000e+00
          0.000e+00
          0.000e+00
          0.000e+00
          0.000e+00
          0.000e+00
          0.000e+00
          0.000e+00
          0.000e+00
          0.000e+00
          0.000e+00
          0.000e+00
          0.000e+00
          0.000e+00
          0.000e+00
          0.000e+00
          0.000e+00
          0.000e+00
          0.000e+00
          0.000e+00
          0.000e+00
          0.000e+00
          0.000e+00
          0.000e+00
          0.000e+00
          0.000e+00
          0.000e+00
          0.000e+00
          0.000e+00
          0.000e+00
          0.000e+00
          0.000e+00
          0.000e+00
          0.000e+00
          0.000e+00
          0.000e+00
          0.000e+00
          0.000e+00
          0.000e+00
          0.000e+00
          0.000e+00
          0.000e+00
          0.000e+00
          0.000e+00
          0.000e+00
          0.000e+00
          0.000e+00
          0.000e+00
          0.000e+00
          0.000e+00
          0.000e+00
          0.000e+00
          0.000e+00
          0.000e+00
          0.000e+00
          0.000e+00
          0.000e+00
          0.000e+00
          0.000e+00
          0.000e+00
          0.000e+00
          0.000e+00
          0.000e+00
          0.000e+00
          0.000e+00
          0.000e+00
          0.000e+00
          0.000e+00
          0.000e+00
          0.000e+00
          0.000e+00
          0.000e+00
          0.000e+00
          0.000e+00
          0.000e+00
          0.000e+00
          0.000e+00
          0.000e+00
          0.000e+00
          0.000e+00
          0.000e+00
          0.000e+00
          0.000e+00
          0.000e+00
          0.000e+00
          0.000e+00
          0.000e+00
          0.000e+00
          0.000e+00
          0.000e+00
          0.000e+00
          0.000e+00
          0.000e+00
          0.000e+00
          0.000e+00
          0.000e+00
          0.000e+00
          0.000e+00
          0.000e+00
          0.000e+00
          0.000e+00
          0.000e+00
          0.000e+00
          0.000e+00
          0.000e+00
          0.000e+00
          0.000e+00
          0.000e+00
          0.000e+00
          0.000e+00
          0.000e+00
          0.000e+00
          0.000e+00
          0.000e+00
          0.000e+00
          0.000e+00
          0.000e+00
          0.000e+00
          0.000e+00
          0.000e+00
          0.000e+00
          0.000e+00
          0.000e+00
          0.000e+00
          0.000e+00
          0.000e+00
          0.000e+00
          0.000e+00
          0.000e+00
          0.000e+00
          0.000e+00
          0.000e+00
          0.000e+00
          0.000e+00
          0.000e+00
          0.000e+00
          0.000e+00
          0.000e+00
          0.000e+00
          0.000e+00
          0.000e+00
          0.000e+00
          0.000e+00
          0.000e+00
          0.000e+00
          0.000e+00
          0.000e+00
          0.000e+00
          0.000e+00
          0.000e+00
          0.000e+00
          0.000e+00
          0.000e+00
          0.000e+00
          0.000e+00
          0.000e+00
          0.000e+00
          0.000e+00
          0.000e+00
          0.000e+00
          0.000e+00
          0.000e+00
          0.000e+00
          0.000e+00
          0.000e+00
          0.000e+00
          0.000e+00
          0.000e+00
          0.000e+00
          0.000e+00
          0.000e+00
          0.000e+00
          0.000e+00
          0.000e+00
          0.000e+00
          0.000e+00
          0.000e+00
          0.000e+00
          0.000e+00
          0.000e+00
          0.000e+00
          0.000e+00
          0.000e+00
          0.000e+00
          0.000e+00
          0.000e+00
          0.000e+00
          0.000e+00
          0.000e+00
          0.000e+00
          0.000e+00
          0.000e+00
          0.000e+00
          0.000e+00
          0.000e+00
          0.000e+00
          0.000e+00
          0.000e+00
          0.000e+00
          0.000e+00
          0.000e+00
          0.000e+00
          0.000e+00
          0.000e+00
          0.000e+00
          0.000e+00
          0.000e+00
          0.000e+00
          0.000e+00
          0.000e+00
          0.000e+00
          0.000e+00
          0.000e+00
          0.000e+00
          0.000e+00
          0.000e+00
          0.000e+00
          0.000e+00
          0.000e+00
          0.000e+00
          0.000e+00
          0.000e+00
          0.000e+00
          0.000e+00
          0.000e+00
          0.000e+00
          0.000e+00
          0.000e+00
          0.000e+00
          0.000e+00
          0.000e+00
          0.000e+00
          0.000e+00
          0.000e+00
          0.000e+00
          0.000e+00
          0.000e+00
          0.000e+00
          0.000e+00
          0.000e+00
          0.000e+00
          0.000e+00
          0.000e+00
          0.000e+00
          0.000e+00
          0.000e+00
          0.000e+00
          0.000e+00
          0.000e+00
          0.000e+00
          0.000e+00
          0.000e+00
          0.000e+00
          0.000e+00
          0.000e+00
          0.000e+00
          0.000e+00
          0.000e+00
          0.000e+00
          0.000e+00
          0.000e+00
          0.000e+00
          0.000e+00
          0.000e+00
          0.000e+00
          0.000e+00
          0.000e+00
          0.000e+00
          0.000e+00
          0.000e+00
          0.000e+00
          0.000e+00
          0.000e+00
          0.000e+00
          0.000e+00
          0.000e+00
          0.000e+00
          0.000e+00
          0.000e+00
          0.000e+00
          0.000e+00
          0.000e+00
          0.000e+00
          0.000e+00
          0.000e+00
          0.000e+00
          0.000e+00
          0.000e+00
          0.000e+00
          0.000e+00
          0.000e+00
          0.000e+00
          0.000e+00
          0.000e+00
          0.000e+00
          0.000e+00
          0.000e+00
          0.000e+00
          0.000e+00
          0.000e+00
          0.000e+00
          0.000e+00
          0.000e+00
          0.000e+00
          0.000e+00
          0.000e+00
          0.000e+00
          0.000e+00
          0.000e+00
          0.000e+00
          0.000e+00
          0.000e+00
          0.000e+00
          0.000e+00
          0.000e+00
          0.000e+00
          0.000e+00
          0.000e+00
          0.000e+00
          0.000e+00
          0.000e+00
          0.000e+00
          0.000e+00
          0.000e+00
          0.000e+00
          0.000e+00
          0.000e+00
          0.000e+00
          0.000e+00
          0.000e+00
          0.000e+00
          0.000e+00
          0.000e+00
          0.000e+00
          0.000e+00
          0.000e+00
          0.000e+00
          0.000e+00
          0.000e+00
          0.000e+00
          0.000e+00
          0.000e+00
          0.000e+00
          0.000e+00
          0.000e+00
          0.000e+00
          0.000e+00
          0.000e+00
          0.000e+00
          0.000e+00
          0.000e+00
          0.000e+00
          0.000e+00
          0.000e+00
          0.000e+00
          0.000e+00
          0.000e+00
          0.000e+00
          0.000e+00
          0.000e+00
          0.000e+00
          0.000e+00
          0.000e+00
          0.000e+00
          0.000e+00
          0.000e+00
          0.000e+00
          0.000e+00
          0.000e+00
          0.000e+00
          0.000e+00
          0.000e+00
          0.000e+00
          0.000e+00
          0.000e+00
          0.000e+00
          0.000e+00
          0.000e+00
          0.000e+00
          0.000e+00
          0.000e+00
          0.000e+00
          0.000e+00
          0.000e+00
          0.000e+00
          0.000e+00
          0.000e+00
          0.000e+00
          0.000e+00
          0.000e+00
          0.000e+00
          0.000e+00
          0.000e+00
          0.000e+00
          0.000e+00
          0.000e+00
          0.000e+00
          0.000e+00
          0.000e+00
          0.000e+00
          0.000e+00
          0.000e+00
          0.000e+00
          0.000e+00
          0.000e+00
          0.000e+00
          0.000e+00
          0.000e+00
          0.000e+00
          0.000e+00
          0.000e+00
          0.000e+00
          0.000e+00
          0.000e+00
          0.000e+00
          0.000e+00
          0.000e+00
          0.000e+00
          0.000e+00
          0.000e+00
          0.000e+00
          0.000e+00
          0.000e+00
          0.000e+00
          0.000e+00
          0.000e+00
          0.000e+00
          0.000e+00
          0.000e+00
          0.000e+00
          0.000e+00
          0.000e+00
          0.000e+00
          0.000e+00
          0.000e+00
          0.000e+00
          0.000e+00
          0.000e+00
          0.000e+00
          0.000e+00
          0.000e+00
          0.000e+00
          0.000e+00
          0.000e+00
          0.000e+00
          0.000e+00
          0.000e+00
          0.000e+00
          0.000e+00
          0.000e+00
          0.000e+00
          0.000e+00
          0.000e+00
          0.000e+00
          0.000e+00
          0.000e+00
          0.000e+00
          0.000e+00
          0.000e+00
          0.000e+00
          0.000e+00
          0.000e+00
          0.000e+00
          0.000e+00
          0.000e+00
          0.000e+00
          0.000e+00
          0.000e+00
          0.000e+00
          0.000e+00
          0.000e+00
          0.000e+00
          0.000e+00
          0.000e+00
          0.000e+00
          0.000e+00
          0.000e+00
          0.000e+00
          0.000e+00
          0.000e+00
          0.000e+00
          0.000e+00
          0.000e+00
          0.000e+00
          0.000e+00
          0.000e+00
          0.000e+00
          0.000e+00
          0.000e+00
          0.000e+00
          0.000e+00
          0.000e+00
          0.000e+00
          0.000e+00
          0.000e+00
          0.000e+00
          0.000e+00
          0.000e+00
          0.000e+00
          0.000e+00
          0.000e+00
          0.000e+00
          0.000e+00
          0.000e+00
          0.000e+00
          0.000e+00
          0.000e+00
          0.000e+00
          0.000e+00
          0.000e+00
          0.000e+00
          0.000e+00
          0.000e+00
          0.000e+00
          0.000e+00
          0.000e+00
          0.000e+00
          0.000e+00
          0.000e+00
          0.000e+00
          0.000e+00
          0.000e+00
          0.000e+00
          0.000e+00
          0.000e+00
          0.000e+00
          0.000e+00
          0.000e+00
          0.000e+00
          0.000e+00
          0.000e+00
          0.000e+00
          0.000e+00
          0.000e+00
          0.000e+00
          0.000e+00
          0.000e+00
          0.000e+00
          0.000e+00
          0.000e+00
          0.000e+00
          0.000e+00
          0.000e+00
          0.000e+00
          0.000e+00
          0.000e+00
          0.000e+00
          0.000e+00
          0.000e+00
          0.000e+00
          0.000e+00
          0.000e+00
          0.000e+00
          0.000e+00
          0.000e+00
          0.000e+00
          0.000e+00
          0.000e+00
          0.000e+00
          0.000e+00
          0.000e+00
          0.000e+00
          0.000e+00
          0.000e+00
          0.000e+00
          0.000e+00
          0.000e+00
          0.000e+00
          0.000e+00
          0.000e+00
          0.000e+00
          0.000e+00
          0.000e+00
          0.000e+00
          0.000e+00
          0.000e+00
          0.000e+00
          0.000e+00
          0.000e+00
          0.000e+00
          0.000e+00
          0.000e+00
          0.000e+00
          0.000e+00
          0.000e+00
          0.000e+00
          0.000e+00
          0.000e+00
          0.000e+00
          0.000e+00
          0.000e+00
          0.000e+00
          0.000e+00
          0.000e+00
          0.000e+00
          0.000e+00
          0.000e+00
          0.000e+00
          0.000e+00
          0.000e+00
          0.000e+00
          0.000e+00
          0.000e+00
          0.000e+00
          0.000e+00
          0.000e+00
          0.000e+00
          0.000e+00
          0.000e+00
          0.000e+00
          0.000e+00
          0.000e+00
          0.000e+00
          0.000e+00
          0.000e+00
          0.000e+00
          0.000e+00
          0.000e+00
          0.000e+00
          0.000e+00
          0.000e+00
          0.000e+00
          0.000e+00
          0.000e+00
          0.000e+00
          0.000e+00
          0.000e+00
          0.000e+00
          0.000e+00
          0.000e+00
          0.000e+00
          0.000e+00
          0.000e+00
          0.000e+00
          0.000e+00
          0.000e+00
          0.000e+00
          0.000e+00
          0.000e+00
          0.000e+00
          0.000e+00
          0.000e+00
          0.000e+00
          0.000e+00
          0.000e+00
          0.000e+00
          0.000e+00
          0.000e+00
          0.000e+00
          0.000e+00
          0.000e+00
          0.000e+00
          0.000e+00
          0.000e+00
          0.000e+00
          0.000e+00