<?xml version="1.0"?>
<VTKFile type="UnstructuredGrid" version="0.1" byte_order="LittleEndian" compressor="vtkZLibDataCompressor">
  <UnstructuredGrid>
    <Piece NumberOfPoints="930" NumberOfCells="1856">
      <Points>
        <DataArray type="Float32" NumberOfComponents="3" format="ascii">
          1.338e+02 1.359e+02 1.509e+02
          1.333e+02 1.359e+02 1.511e+02
          1.341e+02 1.360e+02 1.504e+02
          1.331e+02 1.366e+02 1.508e+02
          1.338e+02 1.367e+02 1.502e+02
          1.343e+02 1.357e+02 1.516e+02
          1.336e+02 1.358e+02 1.513e+02
          1.345e+02 1.358e+02 1.511e+02
          1.334e+02 1.358e+02 1.515e+02
          1.350e+02 1.363e+02 1.503e+02
          1.353e+02 1.363e+02 1.512e+02
          1.329e+02 1.364e+02 1.513e+02
          1.329e+02 1.371e+02 1.510e+02
          1.344e+02 1.368e+02 1.499e+02
          1.354e+02 1.375e+02 1.502e+02
          1.332e+02 1.374e+02 1.506e+02
          1.337e+02 1.374e+02 1.501e+02
          1.330e+02 1.381e+02 1.509e+02
          1.362e+02 1.381e+02 1.508e+02
          1.354e+02 1.384e+02 1.499e+02
          1.340e+02 1.378e+02 1.500e+02
          1.332e+02 1.389e+02 1.508e+02
          1.371e+02 1.385e+02 1.511e+02
          1.365e+02 1.390e+02 1.502e+02
          1.345e+02 1.390e+02 1.500e+02
          1.376e+02 1.433e+02 1.538e+02
          1.377e+02 1.435e+02 1.533e+02
          1.376e+02 1.435e+02 1.547e+02
          1.375e+02 1.436e+02 1.543e+02
          1.374e+02 1.438e+02 1.538e+02
          1.344e+02 1.357e+02 1.526e+02
          1.338e+02 1.357e+02 1.521e+02
          1.351e+02 1.359e+02 1.518e+02
          1.354e+02 1.363e+02 1.519e+02
          1.335e+02 1.358e+02 1.522e+02
          1.355e+02 1.367e+02 1.512e+02
          1.355e+02 1.364e+02 1.525e+02
          1.331e+02 1.361e+02 1.521e+02
          1.357e+02 1.370e+02 1.514e+02
          1.361e+02 1.375e+02 1.513e+02
          1.359e+02 1.370e+02 1.519e+02
          1.329e+02 1.373e+02 1.515e+02
          1.365e+02 1.378e+02 1.516e+02
          1.329e+02 1.387e+02 1.516e+02
          1.330e+02 1.394e+02 1.512e+02
          1.375e+02 1.385e+02 1.515e+02
          1.382e+02 1.387e+02 1.521e+02
          1.373e+02 1.392e+02 1.506e+02
          1.354e+02 1.398e+02 1.499e+02
          1.333e+02 1.394e+02 1.508e+02
          1.338e+02 1.398e+02 1.505e+02
          1.331e+02 1.400e+02 1.515e+02
          1.391e+02 1.396e+02 1.520e+02
          1.379e+02 1.395e+02 1.508e+02
          1.356e+02 1.402e+02 1.500e+02
          1.339e+02 1.401e+02 1.506e+02
          1.334e+02 1.407e+02 1.518e+02
          1.382e+02 1.408e+02 1.537e+02
          1.388e+02 1.410e+02 1.527e+02
          1.390e+02 1.411e+02 1.519e+02
          1.382e+02 1.407e+02 1.511e+02
          1.363e+02 1.406e+02 1.504e+02
          1.341e+02 1.410e+02 1.509e+02
          1.381e+02 1.412e+02 1.546e+02
          1.380e+02 1.417e+02 1.540e+02
          1.384e+02 1.421e+02 1.534e+02
          1.389e+02 1.421e+02 1.524e+02
          1.382e+02 1.417e+02 1.512e+02
          1.360e+02 1.415e+02 1.505e+02
          1.380e+02 1.420e+02 1.550e+02
          1.379e+02 1.421e+02 1.544e+02
          1.378e+02 1.431e+02 1.539e+02
          1.380e+02 1.427e+02 1.538e+02
          1.380e+02 1.432e+02 1.534e+02
          1.384e+02 1.429e+02 1.531e+02
          1.381e+02 1.423e+02 1.518e+02
          1.363e+02 1.423e+02 1.509e+02
          1.381e+02 1.425e+02 1.554e+02
          1.376e+02 1.433e+02 1.548e+02
          1.378e+02 1.428e+02 1.549e+02
          1.377e+02 1.432e+02 1.542e+02
          1.376e+02 1.432e+02 1.545e+02
          1.378e+02 1.428e+02 1.544e+02
          1.380e+02 1.433e+02 1.530e+02
          1.378e+02 1.435e+02 1.530e+02
          1.379e+02 1.429e+02 1.525e+02
          1.366e+02 1.425e+02 1.515e+02
          1.376e+02 1.435e+02 1.549e+02
          1.379e+02 1.432e+02 1.552e+02
          1.375e+02 1.437e+02 1.547e+02
          1.373e+02 1.439e+02 1.543e+02
          1.375e+02 1.438e+02 1.534e+02
          1.373e+02 1.439e+02 1.537e+02
          1.372e+02 1.440e+02 1.532e+02
          1.370e+02 1.433e+02 1.526e+02
          1.379e+02 1.436e+02 1.555e+02
          1.376e+02 1.438e+02 1.552e+02
          1.373e+02 1.441e+02 1.550e+02
          1.370e+02 1.443e+02 1.543e+02
          1.367e+02 1.442e+02 1.537e+02
          1.342e+02 1.357e+02 1.534e+02
          1.338e+02 1.358e+02 1.529e+02
          1.348e+02 1.357e+02 1.531e+02
          1.345e+02 1.357e+02 1.536e+02
          1.337e+02 1.360e+02 1.533e+02
          1.357e+02 1.367e+02 1.531e+02
          1.353e+02 1.360e+02 1.528e+02
          1.354e+02 1.361e+02 1.531e+02
          1.333e+02 1.364e+02 1.525e+02
          1.361e+02 1.372e+02 1.523e+02
          1.331e+02 1.374e+02 1.522e+02
          1.368e+02 1.379e+02 1.525e+02
          1.375e+02 1.383e+02 1.525e+02
          1.368e+02 1.378e+02 1.531e+02
          1.331e+02 1.384e+02 1.522e+02
          1.380e+02 1.386e+02 1.528e+02
          1.374e+02 1.380e+02 1.538e+02
          1.331e+02 1.396e+02 1.522e+02
          1.387e+02 1.387e+02 1.552e+02
          1.384e+02 1.400e+02 1.541e+02
          1.384e+02 1.387e+02 1.543e+02
          1.387e+02 1.397e+02 1.527e+02
          1.385e+02 1.401e+02 1.533e+02
          1.384e+02 1.390e+02 1.533e+02
          1.336e+02 1.404e+02 1.525e+02
          1.338e+02 1.408e+02 1.524e+02
          1.382e+02 1.405e+02 1.542e+02
          1.383e+02 1.409e+02 1.549e+02
          1.384e+02 1.399e+02 1.549e+02
          1.339e+02 1.412e+02 1.522e+02
          1.340e+02 1.414e+02 1.518e+02
          1.341e+02 1.410e+02 1.526e+02
          1.383e+02 1.413e+02 1.552e+02
          1.343e+02 1.417e+02 1.513e+02
          1.345e+02 1.419e+02 1.523e+02
          1.382e+02 1.420e+02 1.556e+02
          1.382e+02 1.426e+02 1.556e+02
          1.351e+02 1.423e+02 1.509e+02
          1.381e+02 1.428e+02 1.555e+02
          1.383e+02 1.428e+02 1.558e+02
          1.351e+02 1.427e+02 1.515e+02
          1.357e+02 1.428e+02 1.521e+02
          1.381e+02 1.432e+02 1.556e+02
          1.382e+02 1.433e+02 1.560e+02
          1.361e+02 1.430e+02 1.523e+02
          1.365e+02 1.437e+02 1.528e+02
          1.359e+02 1.435e+02 1.527e+02
          1.381e+02 1.436e+02 1.557e+02
          1.379e+02 1.438e+02 1.556e+02
          1.381e+02 1.439e+02 1.559e+02
          1.377e+02 1.442e+02 1.556e+02
          1.371e+02 1.444e+02 1.552e+02
          1.367e+02 1.444e+02 1.546e+02
          1.364e+02 1.441e+02 1.532e+02
          1.363e+02 1.444e+02 1.540e+02
          1.362e+02 1.442e+02 1.533e+02
          1.357e+02 1.443e+02 1.538e+02
          1.378e+02 1.443e+02 1.561e+02
          1.375e+02 1.443e+02 1.559e+02
          1.337e+02 1.360e+02 1.541e+02
          1.340e+02 1.358e+02 1.540e+02
          1.345e+02 1.357e+02 1.542e+02
          1.336e+02 1.361e+02 1.540e+02
          1.356e+02 1.363e+02 1.544e+02
          1.351e+02 1.359e+02 1.539e+02
          1.353e+02 1.360e+02 1.542e+02
          1.346e+02 1.357e+02 1.546e+02
          1.336e+02 1.367e+02 1.532e+02
          1.360e+02 1.371e+02 1.535e+02
          1.363e+02 1.372e+02 1.540e+02
          1.335e+02 1.375e+02 1.528e+02
          1.367e+02 1.376e+02 1.538e+02
          1.374e+02 1.377e+02 1.544e+02
          1.335e+02 1.387e+02 1.527e+02
          1.388e+02 1.386e+02 1.555e+02
          1.378e+02 1.379e+02 1.545e+02
          1.388e+02 1.379e+02 1.551e+02
          1.338e+02 1.396e+02 1.530e+02
          1.386e+02 1.391e+02 1.554e+02
          1.341e+02 1.402e+02 1.533e+02
          1.385e+02 1.402e+02 1.556e+02
          1.343e+02 1.409e+02 1.531e+02
          1.344e+02 1.413e+02 1.529e+02
          1.344e+02 1.413e+02 1.534e+02
          1.385e+02 1.411e+02 1.559e+02
          1.345e+02 1.420e+02 1.528e+02
          1.346e+02 1.427e+02 1.532e+02
          1.385e+02 1.418e+02 1.562e+02
          1.347e+02 1.423e+02 1.523e+02
          1.384e+02 1.423e+02 1.562e+02
          1.349e+02 1.433e+02 1.530e+02
          1.384e+02 1.429e+02 1.563e+02
          1.353e+02 1.439e+02 1.531e+02
          1.352e+02 1.443e+02 1.546e+02
          1.383e+02 1.436e+02 1.563e+02
          1.370e+02 1.444e+02 1.559e+02
          1.365e+02 1.444e+02 1.551e+02
          1.360e+02 1.444e+02 1.547e+02
          1.357e+02 1.444e+02 1.550e+02
          1.355e+02 1.442e+02 1.537e+02
          1.356e+02 1.443e+02 1.542e+02
          1.354e+02 1.443e+02 1.540e+02
          1.380e+02 1.441e+02 1.563e+02
          1.378e+02 1.443e+02 1.562e+02
          1.377e+02 1.443e+02 1.564e+02
          1.373e+02 1.444e+02 1.559e+02
          1.375e+02 1.443e+02 1.561e+02
          1.374e+02 1.444e+02 1.562e+02
          1.333e+02 1.360e+02 1.546e+02
          1.334e+02 1.358e+02 1.546e+02
          1.332e+02 1.363e+02 1.546e+02
          1.332e+02 1.359e+02 1.547e+02
          1.356e+02 1.361e+02 1.551e+02
          1.349e+02 1.356e+02 1.553e+02
          1.340e+02 1.356e+02 1.547e+02
          1.345e+02 1.356e+02 1.550e+02
          1.336e+02 1.369e+02 1.538e+02
          1.359e+02 1.367e+02 1.545e+02
          1.363e+02 1.369e+02 1.548e+02
          1.337e+02 1.376e+02 1.535e+02
          1.367e+02 1.373e+02 1.546e+02
          1.375e+02 1.375e+02 1.552e+02
          1.339e+02 1.385e+02 1.533e+02
          1.391e+02 1.385e+02 1.562e+02
          1.382e+02 1.377e+02 1.553e+02
          1.388e+02 1.378e+02 1.558e+02
          1.341e+02 1.393e+02 1.537e+02
          1.387e+02 1.391e+02 1.560e+02
          1.344e+02 1.407e+02 1.538e+02
          1.344e+02 1.414e+02 1.538e+02
          1.386e+02 1.400e+02 1.564e+02
          1.345e+02 1.418e+02 1.535e+02
          1.345e+02 1.419e+02 1.542e+02
          1.386e+02 1.409e+02 1.566e+02
          1.346e+02 1.425e+02 1.538e+02
          1.346e+02 1.431e+02 1.540e+02
          1.346e+02 1.426e+02 1.546e+02
          1.386e+02 1.416e+02 1.568e+02
          1.347e+02 1.434e+02 1.538e+02
          1.347e+02 1.434e+02 1.546e+02
          1.346e+02 1.430e+02 1.551e+02
          1.386e+02 1.422e+02 1.569e+02
[...]
      <PointData Scalars="JD_Thresh">
        <DataArray type="Float32" Name="JD_Thresh" NumberOfComponents="1" format="ascii">
          0.000e+00
          0.000e+00
          0.000e+00
          0.000e+00
          0.000e+00
          0.000e+00
          0.000e+00
          0.000e+00
          0.000e+00
          0.000e+00
          0.000e+00
          0.000e+00
          0.000e+00
          0.000e+00
          0.000e+00
          0.000e+00
          0.000e+00
          0.000e+00
          0.000e+00
          0.000e+00
          0.000e+00
          0.000e+00
          0.000e+00
          0.000e+00
          0.000e+00
          0.000e+00
          0.000e+00
          0.000e+00
          0.000e+00
          0.000e+00
          0.000e+00
          0.000e+00
          0.000e+00
          0.000e+00
          0.000e+00
          0.000e+00
          0.000e+00
          0.000e+00
          0.000e+00
          0.000e+00
          0.000e+00
          0.000e+00
          0.000e+00
          0.000e+00
          0.000e+00
          0.000e+00
          0.000e+00
          0.000e+00
          0.000e+00
          0.000e+00
          0.000e+00
          0.000e+00
          0.000e+00
          0.000e+00
          0.000e+00
          0.000e+00
          0.000e+00
          0.000e+00
          0.000e+00
          0.000e+00
          0.000e+00
          0.000e+00
          0.000e+00
          0.000e+00
          0.000e+00
          0.000e+00
          0.000e+00
          0.000e+00
          0.000e+00
          0.000e+00
          0.000e+00
          0.000e+00
          0.000e+00
          0.000e+00
          0.000e+00
          0.000e+00
          0.000e+00
          0.000e+00
          0.000e+00
          0.000e+00
          0.000e+00
          0.000e+00
          0.000e+00
          0.000e+00
          0.000e+00
          0.000e+00
          0.000e+00
          0.000e+00
          0.000e+00
          0.000e+00
          0.000e+00
          0.000e+00
          0.000e+00
          0.000e+00
          0.000e+00
          0.000e+00
          0.000e+00
          0.000e+00
          0.000e+00
          0.000e+00
          0.000e+00
          0.000e+00
          0.000e+00
          0.000e+00
          0.000e+00
          0.000e+00
          0.000e+00
          0.000e+00
          0.000e+00
          0.000e+00
          0.000e+00
          0.000e+00
          0.000e+00
          0.000e+00
          0.000e+00
          0.000e+00
          0.000e+00
          0.000e+00
          0.000e+00
          0.000e+00
          0.000e+00
          0.000e+00
          0.000e+00
          0.000e+00
          0.000e+00
          0.000e+00
          0.000e+00
          0.000e+00
          0.000e+00
          0.000e+00
          0.000e+00
          0.000e+00
          0.000e+00
          0.000e+00
          0.000e+00
          0.000e+00
          0.000e+00
          0.000e+00
          0.000e+00
          0.000e+00
          0.000e+00
          0.000e+00
          0.000e+00
          0.000e+00
          0.000e+00
          0.000e+00
          0.000e+00
          0.000e+00
          0.000e+00
          0.000e+00
          0.000e+00
          0.000e+00
          0.000e+00
          0.000e+00
          0.000e+00
          0.000e+00
          0.000e+00
          0.000e+00
          0.000e+00
          0.000e+00
          0.000e+00
          0.000e+00
          0.000e+00
          0.000e+00
          0.000e+00
          0.000e+00
          0.000e+00
          0.000e+00
          0.000e+00
          0.000e+00
          0.000e+00
          0.000e+00
          0.000e+00
          0.000e+00
          0.000e+00
          0.000e+00
          0.000e+00
          0.000e+00
          0.000e+00
          0.000e+00
          0.000e+00
          0.000e+00
          0.000e+00
          0.000e+00
          0.000e+00
          0.000e+00
          0.000e+00
          0.000e+00
          0.000e+00
          0.000e+00
          0.000e+00
          0.000e+00
          0.000e+00
          0.000e+00
          0.000e+00
          0.000e+00
          0.000e+00
          0.000e+00
          0.000e+00
          0.000e+00
          0.000e+00
          0.000e+00
          0.000e+00
          0.000e+00
          0.000e+00
          0.000e+00
          0.000e+00
          0.000e+00
          0.000e+00
          0.000e+00
          0.000e+00
          0.000e+00
          0.000e+00
          0.000e+00
          0.000e+00
          0.000e+00
          0.000e+00
          0.000e+00
          0.000e+00
          0.000e+00
          0.000e+00
          0.000e+00
          0.000e+00
          0.000e+00
          0.000e+00
          0.000e+00
          0.000e+00
          0.000e+00
          0.000e+00
          0.000e+00
          0.000e+00
          0.000e+00
          0.000e+00
          0.000e+00
          0.000e+00
          0.000e+00
          0.000e+00
          0.000e+00
          0.000e+00
          0.000e+00
          0.000e+00
          0.000e+00
          0.000e+00
          0.000e+00
          0.000e+00
          0.000e+00
          0.000e+00
          0.000e+00
          0.000e+00
          0.000e+00
          0.000e+00
          0.000e+00
          0.000e+00
          0.000e+00
          0.000e+00
          0.000e+00
          0.000e+00
          0.000e+00
          0.000e+00
          0.000e+00
          0.000e+00
          0.000e+00
          0.000e+00
          0.000e+00
          0.000e+00
          0.000e+00
          0.000e+00
          0.000e+00
          0.000e+00
          0.000e+00
          0.000e+00
          0.000e+00
          0.000e+00
          0.000e+00
          0.000e+00
          0.000e+00
          0.000e+00
          0.000e+00
          0.000e+00
          0.000e+00
          0.000e+00
          0.000e+00
          0.000e+00
          0.000e+00
          0.000e+00
          0.000e+00
          0.000e+00
          0.000e+00
          0.000e+00
          0.000e+00
          0.000e+00
          0.000e+00
          0.000e+00
          0.000e+00
          0.000e+00
          0.000e+00
          0.000e+00
          0.000e+00
          0.000e+00
          0.000e+00
          0.000e+00
          0.000e+00
          0.000e+00
          0.000e+00
          0.000e+00
          0.000e+00
          0.000e+00
          0.000e+00
          0.000e+00
          0.000e+00
          0.000e+00
          0.000e+00
          0.000e+00
          0.000e+00
          0.000e+00
          0.000e+00
          0.000e+00
          0.000e+00
          0.000e+00
          0.000e+00
          0.000e+00
          0.000e+00
          0.000e+00
          0.000e+00
          0.000e+00
          0.000e+00
          0.000e+00
          0.000e+00
          0.000e+00
          0.000e+00
          0.000e+00
          0.000e+00
          0.000e+00
          0.000e+00
          0.000e+00
          0.000e+00
          0.000e+00
          0.000e+00
          0.000e+00
          0.000e+00
          0.000e+00
          0.000e+00
          0.000e+00
          0.000e+00
          0.000e+00
          0.000e+00
          0.000e+00
          0.000e+00
          0.000e+00
          0.000e+00
          0.000e+00
          0.000e+00
          0.000e+00
          0.000e+00
          0.000e+00
          0.000e+00
          0.000e+00
          0.000e+00
          0.000e+00
          0.000e+00
          0.000e+00
          0.000e+00
          0.000e+00
          0.000e+00
          0.000e+00
          0.000e+00
          0.000e+00
          0.000e+00
          0.000e+00
          0.000e+00
          0.000e+00
          0.000e+00
          0.000e+00
          0.000e+00
          0.000e+00
          0.000e+00
          0.000e+00
          0.000e+00
          0.000e+00
          0.000e+00
          0.000e+00
          0.000e+00
          0.000e+00
          0.000e+00
          0.000e+00
          0.000e+00
          0.000e+00
          0.000e+00
          0.000e+00
          0.000e+00
          0.000e+00
          0.000e+00
          0.000e+00
          0.000e+00
          0.000e+00
          0.000e+00
          0.000e+00
          0.000e+00
          0.000e+00
          0.000e+00
          0.000e+00
          0.000e+00
          0.000e+00
          0.000e+00
          0.000e+00
          0.000e+00
          0.000e+00
          0.000e+00
          0.000e+00
          0.000e+00
          0.000e+00
          0.000e+00
          0.000e+00
          0.000e+00
          0.000e+00
          0.000e+00
          0.000e+00
          0.000e+00
          0.000e+00
          0.000e+00
          0.000e+00
          0.000e+00
          0.000e+00
          0.000e+00
          0.000e+00
          0.000e+00
          0.000e+00
          0.000e+00
          0.000e+00
          0.000e+00
          0.000e+00
          0.000e+00
          0.000e+00
          0.000e+00
          0.000e+00
          0.000e+00
          0.000e+00
          0.000e+00
          0.000e+00
          0.000e+00
          0.000e+00
          0.000e+00
          0.000e+00
          0.000e+00
          0.000e+00
          0.000e+00
          0.000e+00
          0.000e+00
          0.000e+00
          0.000e+00
          0.000e+00
          0.000e+00
          0.000e+00
          0.000e+00
          0.000e+00
          0.000e+00
          0.000e+00
          0.000e+00
          0.000e+00
          0.000e+00
          0.000e+00
          0.000e+00
          0.000e+00
          0.000e+00
          0.000e+00
          0.000e+00
          0.000e+00
          0.000e+00
          0.000e+00
          0.000e+00
          0.000e+00
          0.000e+00
          0.000e+00
          0.000e+00
          0.000e+00
          0.000e+00
          0.000e+00
          0.000e+00
          0.000e+00
          0.000e+00
          0.000e+00
          0.000e+00
          0.000e+00
          0.000e+00
          0.000e+00
          0.000e+00
          0.000e+00
          0.000e+00
          0.000e+00
          0.000e+00
          0.000e+00
          0.000e+00
          0.000e+00
          0.000e+00
          0.000e+00
          0.000e+00
          0.000e+00
          0.000e+00
          0.000e+00
          0.000e+00
          0.000e+00
          0.000e+00
          0.000e+00
          0.000e+00
          0.000e+00
          0.000e+00
          0.000e+00
          0.000e+00
          0.000e+00
          0.000e+00
          0.000e+00
          0.000e+00
          0.000e+00
          0.000e+00
          0.000e+00
          0.000e+00
          0.000e+00
          0.000e+00
          0.000e+00
          0.000e+00
          0.000e+00
          0.000e+00
          0.000e+00
          0.000e+00
          0.000e+00
          0.000e+00
          0.000e+00
          0.000e+00
          0.000e+00
          0.000e+00
          0.000e+00
          0.000e+00
          0.000e+00
          0.000e+00
          0.000e+00
          0.000e+00
          0.000e+00
          0.000e+00
          0.000e+00
          0.000e+00
          0.000e+00
          0.000e+00
          0.000e+00
          0.000e+00
          0.000e+00
          0.000e+00
          0.000e+00
          0.000e+00
          0.000e+00
          0.000e+00
          0.000e+00
          0.000e+00
          0.000e+00
          0.000e+00
          0.000e+00
          0.000e+00
          0.000e+00
          0.000e+00
          0.000e+00
          0.000e+00
          0.000e+00
          0.000e+00
          0.000e+00
          0.000e+00
          0.000e+00
          0.000e+00
          0.000e+00
          0.000e+00
          0.000e+00
          0.000e+00
          0.000e+00
          0.000e+00
          0.000e+00
          0.000e+00
          0.000e+00
          0.000e+00
          0.000e+00
          0.000e+00
          0.000e+00
          0.000e+00
          0.000e+00
          0.000e+00
          0.000e+00
          0.000e+00
          0.000e+00
          0.000e+00
          0.000e+00
          0.000e+00
          0.000e+00
          0.000e+00
          0.000e+00
          0.000e+00
          0.000e+00
          0.000e+00
          0.000e+00
          0.000e+00
          0.000e+00
          0.000e+00
          0.000e+00
          0.000e+00
          0.000e+00
          0.000e+00
          0.000e+00
          0.000e+00
          0.000e+00
          0.000e+00
          0.000e+00
          0.000e+00
          0.000e+00
          0.000e+00
          0.000e+00
          0.000e+00
          0.000e+00
          0.000e+00
          0.000e+00
          0.000e+00
          0.000e+00
          0.000e+00
          0.000e+00
          0.000e+00
          0.000e+00
          0.000e+00
          0.000e+00
          0.000e+00
          0.000e+00
          0.000e+00
          0.000e+00
          0.000e+00
          0.000e+00
          0.000e+00
          0.000e+00
          0.000e+00
          0.000e+00
          0.000e+00
          0.000e+00
          0.000e+00
          0.000e+00
          0.000e+00
          0.000e+00
          0.000e+00
          0.000e+00
          0.000e+00
          0.000e+00
          0.000e+00
          0.000e+00
          0.000e+00
          0.000e+00
          0.000e+00
          0.000e+00
          0.000e+00
          0.000e+00
          0.000e+00
          0.000e+00
          0.000e+00
          0.000e+00
          0.000e+00
          0.000e+00
          0.000e+00
          0.000e+00
          0.000e+00
          0.000e+00
          0.000e+00
          0.000e+00
          0.000e+00
          0.000e+00
          0.000e+00
          0.000e+00
          0.000e+00
          0.000e+00
          0.000e+00
          0.000e+00
          0.000e+00
          0.000e+00
          0.000e+00
          0.000e+00
          0.000e+00
          0.000e+00
          0.000e+00
          0.000e+00
          0.000e+00
          0.000e+00
          0.000e+00
          0.000e+00
          0.000e+00
          0.000e+00
          0.000e+00
          0.000e+00
          0.000e+00
          0.000e+00
          0.000e+00
          0.000e+00
          0.000e+00
          0.000e+00
          0.000e+00
          0.000e+00
          0.000e+00
          0.000e+00
          0.000e+00
          0.000e+00
          0.000e+00
          0.000e+00
          0.000e+00
          0.000e+00
          0.000e+00
          0.000e+00
          0.000e+00
          0.000e+00
          0.000e+00
          0.000e+00
          0.000e+00
          0.000e+00
          0.000e+00
          0.000e+00
          0.000e+00
          0.000e+00
          0.000e+00
          0.000e+00
          0.000e+00
          0.000e+00
          0.000e+00
          0.000e+00
          0.000e+00
          0.000e+00
          0.000e+00
          0.000e+00
          0.000e+00
          0.000e+00
          0.000e+00
          0.000e+00
          0.000e+00
          0.000e+00
          0.000e+00
          0.000e+00
          0.000e+00
          0.000e+00
          0.000e+00
          0.000e+00
          0.000e+00
          0.000e+00
          0.000e+00
          0.000e+00
          0.000e+00
          0.000e+00
          0.000e+00
          0.000e+00
          0.000e+00
          0.000e+00
          0.000e+00
          0.000e+00
          0.000e+00
          0.000e+00
          0.000e+00
          0.000e+00
          0.000e+00
          0.000e+00
          0.000e+00
          0.000e+00
          0.000e+00
          0.000e+00
          0.000e+00
          0.000e+00
          0.000e+00
          0.000e+00
          0.000e+00
          0.000e+00
          0.000e+00
          0.000e+00
          0.000e+00
          0.000e+00
          0.000e+00
          0.000e+00
          0.000e+00
          0.000e+00
          0.000e+00
          0.000e+00
          0.000e+00
          0.000e+00
          0.000e+00
          0.000e+00
          0.000e+00
          0.000e+00
          0.000e+00
          0.000e+00
          0.000e+00
          0.000e+00
          0.000e+00
          0.000e+00
          0.000e+00
          0.000e+00
          0.000e+00
          0.000e+00
          0.000e+00
          0.000e+00
          0.000e+00
          0.000e+00
          0.000e+00
          0.000e+00
          0.000e+00
          0.000e+00
          0.000e+00
          0.000e+00
          0.000e+00
          0.000e+00
          0.000e+00
          0.000e+00
          0.000e+00
          0.000e+00
          0.000e+00
          0.000e+00
          0.000e+00
          0.000e+00
          0.000e+00
          0.000e+00
          0.000e+00
          0.000e+00
          0.000e+00
          0.000e+00
          0.000e+00
          0.000e+00
          0.000e+00
          0.000e+00
          0.000e+00
          0.000e+00
          0.000e+00
          0.000e+00
          0.000e+00
          0.000e+00
          0.000e+00
          0.000e+00
          0.000e+00
          0.000e+00
          0.000e+00
          0.000e+00
          0.000e+00
          0.000e+00
          0.000e+00
          0.000e+00
          0.000e+00
          0.000e+00
          0.000e+00
          0.000e+00
          0.000e+00
          0.000e+00
          0.000e+00
          0.000e+00
          0.000e+00
          0.000e+00
          0.000e+00
          0.000e+00
          0.000e+00
          0.000e+00
          0.000e+00
          0.000e+00
          0.000e+00
          0.000e+00
          0.000e+00
          0.000e+00
          0.000e+00
          0.000e+00
          0.000e+00
          0.000e+00
          0.000e+00
          0.000e+00
          0.000e+00
          0.000e+00
          0.000e+00
          0.000e+00
          0.000e+00
          0.000e+00
          0.000e+00
          0.000e+00
          0.000e+00
          0.000e+00
          0.000e+00
          0.000e+00
          0.000e+00
          0.000e+00
          0.000e+00
          0.000e+00
          0.000e+00
          0.000e+00
          0.000e+00
          0.000e+00
          0.000e+00
          0.000e+00
          0.000e+00
          0.000e+00
          0.000e+00
          0.000e+00
          0.000e+00
          0.000e+00
          0.000e+00
          0.000e+00
          0.000e+00
          0.000e+00
          0.000e+00
          0.000e+00
          0.000e+00
          0.000e+00
          0.000e+00
          0.000e+00
          0.000e+00
          0.000e+00
          0.000e+00
          0.000e+00
          0.000e+00
          0.000e+00
          0.000e+00
          0.000e+00
          0.000e+00
          0.000e+00
          0.000e+00
          0.000e+00
          0.000e+00
          0.000e+00
          0.000e+00
          0.000e+00
          0.000e+00
          0.000e+00
          0.000e+00
          0.000e+00
          0.000e+00
          0.000e+00
          0.000e+00
          0.000e+00
          0.000e+00
          0.000e+00
          0.000e+00
          0.000e+00
          0.000e+00
        </DataArray>
      </PointData>
    </Piece>
  </UnstructuredGrid>
</VTKFile>
