<?xml version="1.0"?>
<VTKFile type="UnstructuredGrid" version="0.1" byte_order="LittleEndian" compressor="vtkZLibDataCompressor">
  <UnstructuredGrid>
    <Piece NumberOfPoints="2502" NumberOfCells="5000">
      <Points>
        <DataArray type="Float32" NumberOfComponents="3" format="ascii">
          1.457e+02 1.347e+02 1.099e+02
          1.463e+02 1.351e+02 1.101e+02
          1.454e+02 1.339e+02 1.110e+02
          1.446e+02 1.331e+02 1.107e+02
          1.432e+02 1.333e+02 1.101e+02
          1.465e+02 1.347e+02 1.115e+02
          1.459e+02 1.345e+02 1.107e+02
          1.460e+02 1.347e+02 1.104e+02
          1.469e+02 1.352e+02 1.112e+02
          1.451e+02 1.341e+02 1.100e+02
          1.446e+02 1.348e+02 1.090e+02
          1.468e+02 1.356e+02 1.105e+02
          1.476e+02 1.359e+02 1.110e+02
          1.455e+02 1.350e+02 1.095e+02
          1.461e+02 1.355e+02 1.097e+02
          1.468e+02 1.360e+02 1.100e+02
          1.456e+02 1.358e+02 1.089e+02
          1.488e+02 1.369e+02 1.108e+02
          1.480e+02 1.365e+02 1.106e+02
          1.469e+02 1.366e+02 1.094e+02
          1.427e+02 1.327e+02 1.115e+02
          1.452e+02 1.333e+02 1.119e+02
          1.439e+02 1.329e+02 1.121e+02
          1.439e+02 1.327e+02 1.112e+02
          1.461e+02 1.346e+02 1.118e+02
          1.474e+02 1.352e+02 1.120e+02
          1.437e+02 1.339e+02 1.094e+02
          1.482e+02 1.358e+02 1.116e+02
          1.486e+02 1.357e+02 1.122e+02
          1.438e+02 1.348e+02 1.085e+02
          1.434e+02 1.353e+02 1.078e+02
          1.489e+02 1.361e+02 1.114e+02
          1.443e+02 1.358e+02 1.080e+02
          1.490e+02 1.366e+02 1.111e+02
          1.499e+02 1.367e+02 1.117e+02
          1.494e+02 1.373e+02 1.112e+02
          1.487e+02 1.371e+02 1.107e+02
          1.460e+02 1.368e+02 1.086e+02
          1.491e+02 1.378e+02 1.108e+02
          1.480e+02 1.373e+02 1.101e+02
          1.470e+02 1.372e+02 1.090e+02
          1.425e+02 1.328e+02 1.123e+02
          1.449e+02 1.340e+02 1.128e+02
          1.416e+02 1.325e+02 1.115e+02
          1.407e+02 1.326e+02 1.106e+02
          1.397e+02 1.326e+02 1.106e+02
          1.456e+02 1.342e+02 1.122e+02
          1.459e+02 1.348e+02 1.127e+02
          1.422e+02 1.327e+02 1.102e+02
          1.404e+02 1.332e+02 1.093e+02
          1.466e+02 1.348e+02 1.125e+02
          1.473e+02 1.354e+02 1.126e+02
          1.470e+02 1.354e+02 1.129e+02
          1.423e+02 1.335e+02 1.091e+02
          1.409e+02 1.346e+02 1.083e+02
          1.395e+02 1.346e+02 1.085e+02
          1.483e+02 1.358e+02 1.127e+02
          1.426e+02 1.347e+02 1.081e+02
          1.494e+02 1.358e+02 1.126e+02
          1.497e+02 1.360e+02 1.130e+02
          1.426e+02 1.358e+02 1.074e+02
          1.422e+02 1.366e+02 1.072e+02
          1.414e+02 1.363e+02 1.075e+02
          1.497e+02 1.359e+02 1.121e+02
          1.503e+02 1.368e+02 1.121e+02
          1.504e+02 1.365e+02 1.127e+02
          1.435e+02 1.361e+02 1.073e+02
          1.439e+02 1.368e+02 1.071e+02
          1.506e+02 1.374e+02 1.120e+02
          1.510e+02 1.374e+02 1.124e+02
          1.449e+02 1.366e+02 1.078e+02
          1.504e+02 1.380e+02 1.116e+02
          1.514e+02 1.382e+02 1.122e+02
          1.454e+02 1.374e+02 1.077e+02
          1.512e+02 1.389e+02 1.120e+02
          1.485e+02 1.382e+02 1.103e+02
          1.477e+02 1.379e+02 1.095e+02
          1.462e+02 1.377e+02 1.081e+02
          1.470e+02 1.378e+02 1.087e+02
          1.514e+02 1.397e+02 1.121e+02
          1.420e+02 1.330e+02 1.130e+02
          1.411e+02 1.325e+02 1.124e+02
          1.437e+02 1.333e+02 1.128e+02
          1.426e+02 1.335e+02 1.133e+02
          1.402e+02 1.322e+02 1.117e+02
          1.393e+02 1.322e+02 1.114e+02
          1.368e+02 1.327e+02 1.117e+02
          1.455e+02 1.348e+02 1.131e+02
          1.436e+02 1.341e+02 1.134e+02
          1.387e+02 1.327e+02 1.106e+02
          1.372e+02 1.331e+02 1.106e+02
          1.361e+02 1.337e+02 1.109e+02
          1.463e+02 1.352e+02 1.131e+02
          1.470e+02 1.358e+02 1.132e+02
          1.372e+02 1.348e+02 1.097e+02
          1.366e+02 1.358e+02 1.103e+02
          1.362e+02 1.369e+02 1.109e+02
          1.478e+02 1.359e+02 1.131e+02
          1.487e+02 1.361e+02 1.133e+02
          1.383e+02 1.341e+02 1.092e+02
          1.389e+02 1.358e+02 1.084e+02
          1.383e+02 1.360e+02 1.090e+02
          1.374e+02 1.367e+02 1.098e+02
          1.494e+02 1.361e+02 1.133e+02
          1.401e+02 1.363e+02 1.078e+02
          1.387e+02 1.370e+02 1.086e+02
          1.376e+02 1.382e+02 1.101e+02
          1.369e+02 1.379e+02 1.105e+02
          1.503e+02 1.366e+02 1.134e+02
          1.423e+02 1.376e+02 1.071e+02
          1.407e+02 1.373e+02 1.075e+02
          1.393e+02 1.372e+02 1.081e+02
          1.383e+02 1.381e+02 1.094e+02
          1.430e+02 1.371e+02 1.069e+02
          1.438e+02 1.382e+02 1.068e+02
          1.518e+02 1.379e+02 1.129e+02
          1.446e+02 1.378e+02 1.069e+02
          1.520e+02 1.385e+02 1.125e+02
          1.525e+02 1.383e+02 1.130e+02
          1.454e+02 1.383e+02 1.073e+02
          1.460e+02 1.388e+02 1.077e+02
          1.520e+02 1.392e+02 1.124e+02
          1.526e+02 1.390e+02 1.129e+02
          1.499e+02 1.387e+02 1.112e+02
          1.484e+02 1.391e+02 1.101e+02
          1.478e+02 1.389e+02 1.095e+02
          1.466e+02 1.385e+02 1.083e+02
          1.471e+02 1.386e+02 1.087e+02
          1.527e+02 1.398e+02 1.127e+02
          1.503e+02 1.396e+02 1.114e+02
          1.490e+02 1.394e+02 1.104e+02
          1.404e+02 1.327e+02 1.136e+02
          1.396e+02 1.322e+02 1.130e+02
          1.392e+02 1.318e+02 1.121e+02
          1.378e+02 1.322e+02 1.124e+02
          1.371e+02 1.325e+02 1.133e+02
          1.357e+02 1.338e+02 1.122e+02
          1.358e+02 1.355e+02 1.111e+02
          1.356e+02 1.355e+02 1.123e+02
          1.357e+02 1.370e+02 1.124e+02
          1.454e+02 1.353e+02 1.134e+02
          1.444e+02 1.347e+02 1.134e+02
          1.423e+02 1.343e+02 1.137e+02
          1.462e+02 1.356e+02 1.134e+02
          1.471e+02 1.363e+02 1.136e+02
          1.446e+02 1.354e+02 1.137e+02
          1.434e+02 1.352e+02 1.139e+02
          1.358e+02 1.376e+02 1.118e+02
          1.480e+02 1.363e+02 1.135e+02
          1.488e+02 1.365e+02 1.137e+02
          1.362e+02 1.385e+02 1.115e+02
          1.360e+02 1.397e+02 1.121e+02
          1.495e+02 1.365e+02 1.138e+02
          1.502e+02 1.369e+02 1.141e+02
          1.372e+02 1.387e+02 1.108e+02
          1.366e+02 1.394e+02 1.116e+02
          1.507e+02 1.370e+02 1.138e+02
          1.427e+02 1.389e+02 1.072e+02
          1.416e+02 1.383e+02 1.074e+02
          1.405e+02 1.381e+02 1.078e+02
          1.399e+02 1.385e+02 1.084e+02
          1.392e+02 1.384e+02 1.089e+02
          1.379e+02 1.391e+02 1.106e+02
          1.511e+02 1.372e+02 1.133e+02
          1.517e+02 1.377e+02 1.138e+02
          1.431e+02 1.386e+02 1.070e+02
          1.431e+02 1.396e+02 1.074e+02
          1.422e+02 1.397e+02 1.078e+02
          1.413e+02 1.395e+02 1.081e+02
          1.405e+02 1.394e+02 1.087e+02
          1.398e+02 1.394e+02 1.093e+02
          1.389e+02 1.393e+02 1.102e+02
          1.527e+02 1.379e+02 1.136e+02
          1.445e+02 1.390e+02 1.070e+02
          1.530e+02 1.387e+02 1.133e+02
          1.532e+02 1.387e+02 1.138e+02
          1.452e+02 1.395e+02 1.073e+02
          1.457e+02 1.399e+02 1.077e+02
          1.532e+02 1.395e+02 1.132e+02
          1.536e+02 1.394e+02 1.137e+02
          1.476e+02 1.401e+02 1.093e+02
          1.465e+02 1.395e+02 1.081e+02
          1.470e+02 1.397e+02 1.086e+02
          1.538e+02 1.401e+02 1.132e+02
          1.532e+02 1.404e+02 1.128e+02
          1.519e+02 1.402e+02 1.123e+02
          1.495e+02 1.401e+02 1.106e+02
          1.482e+02 1.399e+02 1.099e+02
          1.487e+02 1.401e+02 1.100e+02
          1.540e+02 1.409e+02 1.130e+02
          1.370e+02 1.330e+02 1.135e+02
          1.365e+02 1.328e+02 1.126e+02
          1.358e+02 1.345e+02 1.130e+02
          1.375e+02 1.326e+02 1.136e+02
          1.383e+02 1.322e+02 1.135e+02
          1.357e+02 1.355e+02 1.128e+02
          1.414e+02 1.334e+02 1.137e+02
          1.392e+02 1.331e+02 1.142e+02
          1.415e+02 1.346e+02 1.141e+02
          1.405e+02 1.338e+02 1.142e+02
          1.397e+02 1.344e+02 1.144e+02
          1.470e+02 1.367e+02 1.138e+02
          1.458e+02 1.361e+02 1.137e+02
          1.424e+02 1.356e+02 1.142e+02
          1.358e+02 1.392e+02 1.124e+02
          1.481e+02 1.369e+02 1.139e+02
          1.462e+02 1.368e+02 1.140e+02
          1.449e+02 1.363e+02 1.140e+02
          1.437e+02 1.362e+02 1.142e+02
          1.493e+02 1.369e+02 1.142e+02
          1.499e+02 1.373e+02 1.145e+02
          1.362e+02 1.405e+02 1.124e+02
          1.365e+02 1.403e+02 1.120e+02
          1.509e+02 1.375e+02 1.142e+02
          1.515e+02 1.379e+02 1.144e+02
          1.372e+02 1.401e+02 1.117e+02
          1.522e+02 1.379e+02 1.142e+02
          1.528e+02 1.382e+02 1.144e+02
          1.417e+02 1.404e+02 1.086e+02
          1.409e+02 1.402e+02 1.091e+02
          1.402e+02 1.401e+02 1.096e+02
          1.396e+02 1.401e+02 1.102e+02
          1.389e+02 1.402e+02 1.109e+02
          1.380e+02 1.404e+02 1.115e+02
          1.370e+02 1.410e+02 1.125e+02
          1.531e+02 1.383e+02 1.141e+02
          1.440e+02 1.400e+02 1.074e+02
          1.427e+02 1.409e+02 1.085e+02
          1.533e+02 1.391e+02 1.142e+02
          1.449e+02 1.408e+02 1.079e+02
          1.438e+02 1.411e+02 1.086e+02
          1.540e+02 1.398e+02 1.140e+02
          1.471e+02 1.411e+02 1.092e+02
          1.459e+02 1.406e+02 1.082e+02
          1.462e+02 1.410e+02 1.087e+02
          1.452e+02 1.413e+02 1.086e+02
          1.545e+02 1.406e+02 1.135e+02
          1.508e+02 1.406e+02 1.117e+02
          1.497e+02 1.409e+02 1.107e+02
          1.480e+02 1.407e+02 1.097e+02
          1.486e+02 1.411e+02 1.101e+02
          1.476e+02 1.413e+02 1.096e+02
[...]
      <PointData Scalars="JD_Thresh">
        <DataArray type="Float32" Name="JD_Thresh" NumberOfComponents="1" format="ascii">
          0.000e+00
          0.000e+00
          0.000e+00
          0.000e+00
          0.000e+00
          0.000e+00
          0.000e+00
          0.000e+00
          0.000e+00
          0.000e+00
          0.000e+00
          0.000e+00
          0.000e+00
          0.000e+00
          0.000e+00
          0.000e+00
          0.000e+00
          0.000e+00
          0.000e+00
          0.000e+00
          0.000e+00
          0.000e+00
          0.000e+00
          0.000e+00
          0.000e+00
          0.000e+00
          0.000e+00
          0.000e+00
          0.000e+00
          0.000e+00
          0.000e+00
          0.000e+00
          0.000e+00
          0.000e+00
          0.000e+00
          0.000e+00
          0.000e+00
          0.000e+00
          0.000e+00
          0.000e+00
          0.000e+00
          0.000e+00
          0.000e+00
          0.000e+00
          0.000e+00
          0.000e+00
          0.000e+00
          0.000e+00
          0.000e+00
          0.000e+00
          0.000e+00
          0.000e+00
          0.000e+00
          0.000e+00
          0.000e+00
          0.000e+00
          0.000e+00
          0.000e+00
          0.000e+00
          0.000e+00
          0.000e+00
          0.000e+00
          0.000e+00
          0.000e+00
          0.000e+00
          0.000e+00
          0.000e+00
          0.000e+00
          0.000e+00
          0.000e+00
          0.000e+00
          0.000e+00
          0.000e+00
          0.000e+00
          0.000e+00
          0.000e+00
          0.000e+00
          0.000e+00
          0.000e+00
          0.000e+00
          0.000e+00
          0.000e+00
          0.000e+00
          0.000e+00
          0.000e+00
          0.000e+00
          0.000e+00
          0.000e+00
          0.000e+00
          0.000e+00
          0.000e+00
          0.000e+00
          0.000e+00
          0.000e+00
          0.000e+00
          0.000e+00
          0.000e+00
          0.000e+00
          0.000e+00
          0.000e+00
          0.000e+00
          0.000e+00
          0.000e+00
          0.000e+00
          0.000e+00
          0.000e+00
          0.000e+00
          0.000e+00
          0.000e+00
          0.000e+00
          0.000e+00
          0.000e+00
          0.000e+00
          0.000e+00
          0.000e+00
          0.000e+00
          0.000e+00
          0.000e+00
          0.000e+00
          0.000e+00
          0.000e+00
          0.000e+00
          0.000e+00
          0.000e+00
          0.000e+00
          0.000e+00
          0.000e+00
          0.000e+00
          0.000e+00
          0.000e+00
          0.000e+00
          0.000e+00
          0.000e+00
          0.000e+00
          0.000e+00
          0.000e+00
          0.000e+00
          0.000e+00
          0.000e+00
          0.000e+00
          0.000e+00
          0.000e+00
          0.000e+00
          0.000e+00
          0.000e+00
          0.000e+00
          0.000e+00
          0.000e+00
          0.000e+00
          0.000e+00
          0.000e+00
          0.000e+00
          0.000e+00
          0.000e+00
          0.000e+00
          0.000e+00
          0.000e+00
          0.000e+00
          0.000e+00
          0.000e+00
          0.000e+00
          0.000e+00
          0.000e+00
          0.000e+00
          0.000e+00
          0.000e+00
          0.000e+00
          0.000e+00
          0.000e+00
          0.000e+00
          0.000e+00
          0.000e+00
          0.000e+00
          0.000e+00
          0.000e+00
          0.000e+00
          0.000e+00
          0.000e+00
          0.000e+00
          0.000e+00
          0.000e+00
          0.000e+00
          0.000e+00
          0.000e+00
          0.000e+00
          0.000e+00
          0.000e+00
          0.000e+00
          0.000e+00
          0.000e+00
          0.000e+00
          0.000e+00
          0.000e+00
          0.000e+00
          0.000e+00
          0.000e+00
          0.000e+00
          0.000e+00
          0.000e+00
          0.000e+00
          0.000e+00
          0.000e+00
          0.000e+00
          0.000e+00
          0.000e+00
          0.000e+00
          0.000e+00
          0.000e+00
          0.000e+00
          0.000e+00
          0.000e+00
          0.000e+00
          0.000e+00
          0.000e+00
          0.000e+00
          0.000e+00
          0.000e+00
          0.000e+00
          0.000e+00
          0.000e+00
          0.000e+00
          0.000e+00
          0.000e+00
          0.000e+00
          0.000e+00
          0.000e+00
          0.000e+00
          0.000e+00
          0.000e+00
          0.000e+00
          0.000e+00
          0.000e+00
          0.000e+00
          0.000e+00
          0.000e+00
          0.000e+00
          0.000e+00
          0.000e+00
          0.000e+00
          0.000e+00
          0.000e+00
          0.000e+00
          0.000e+00
          0.000e+00
          0.000e+00
          0.000e+00
          0.000e+00
          0.000e+00
          0.000e+00
          0.000e+00
          0.000e+00
          0.000e+00
          0.000e+00
          0.000e+00
          0.000e+00
          0.000e+00
          0.000e+00
          0.000e+00
          0.000e+00
          0.000e+00
          0.000e+00
          0.000e+00
          0.000e+00
          0.000e+00
          0.000e+00
          0.000e+00
          0.000e+00
          0.000e+00
          0.000e+00
          0.000e+00
          0.000e+00
          0.000e+00
          0.000e+00
          0.000e+00
          0.000e+00
          0.000e+00
          0.000e+00
          0.000e+00
          0.000e+00
          0.000e+00
          0.000e+00
          0.000e+00
          0.000e+00
          0.000e+00
          0.000e+00
          0.000e+00
          0.000e+00
          0.000e+00
          0.000e+00
          0.000e+00
          0.000e+00
          0.000e+00
          0.000e+00
          0.000e+00
          0.000e+00
          0.000e+00
          0.000e+00
          0.000e+00
          0.000e+00
          0.000e+00
          0.000e+00
          0.000e+00
          0.000e+00
          0.000e+00
          0.000e+00
          0.000e+00
          0.000e+00
          0.000e+00
          0.000e+00
          0.000e+00
          0.000e+00
          0.000e+00
          0.000e+00
          0.000e+00
          0.000e+00
          0.000e+00
          0.000e+00
          0.000e+00
          0.000e+00
          0.000e+00
          0.000e+00
          0.000e+00
          0.000e+00
          0.000e+00
          0.000e+00
          0.000e+00
          0.000e+00
          0.000e+00
          0.000e+00
          0.000e+00
          0.000e+00
          0.000e+00
          0.000e+00
          0.000e+00
          0.000e+00
          0.000e+00
          0.000e+00
          0.000e+00
          0.000e+00
          0.000e+00
          0.000e+00
          0.000e+00
          0.000e+00
          0.000e+00
          0.000e+00
          0.000e+00
          0.000e+00
          0.000e+00
          0.000e+00
          0.000e+00
          0.000e+00
          0.000e+00
          0.000e+00
          0.000e+00
          0.000e+00
          0.000e+00
          0.000e+00
          0.000e+00
          0.000e+00
          0.000e+00
          0.000e+00
          0.000e+00
          0.000e+00
          0.000e+00
          0.000e+00
          0.000e+00
          0.000e+00
          0.000e+00
          0.000e+00
          0.000e+00
          0.000e+00
          0.000e+00
          0.000e+00
          0.000e+00
          0.000e+00
          0.000e+00
          0.000e+00
          0.000e+00
          0.000e+00
          0.000e+00
          0.000e+00
          0.000e+00
          0.000e+00
          0.000e+00
          0.000e+00
          0.000e+00
          0.000e+00
          0.000e+00
          0.000e+00
          0.000e+00
          0.000e+00
          0.000e+00
          0.000e+00
          0.000e+00
          0.000e+00
          0.000e+00
          0.000e+00
          0.000e+00
          0.000e+00
          0.000e+00
          0.000e+00
          0.000e+00
          0.000e+00
          0.000e+00
          0.000e+00
          0.000e+00
          0.000e+00
          0.000e+00
          0.000e+00
          0.000e+00
          0.000e+00
          0.000e+00
          0.000e+00
          0.000e+00
          0.000e+00
          0.000e+00
          0.000e+00
          0.000e+00
          0.000e+00
          0.000e+00
          0.000e+00
          0.000e+00
          0.000e+00
          0.000e+00
          0.000e+00
          0.000e+00
          0.000e+00
          0.000e+00
          0.000e+00
          0.000e+00
          0.000e+00
          0.000e+00
          0.000e+00
          0.000e+00
          0.000e+00
          0.000e+00
          0.000e+00
          0.000e+00
          0.000e+00
          0.000e+00
          0.000e+00
          0.000e+00
          0.000e+00
          0.000e+00
          0.000e+00
          0.000e+00
          0.000e+00
          0.000e+00
          0.000e+00
          0.000e+00
          0.000e+00
          0.000e+00
          0.000e+00
          0.000e+00
          0.000e+00
          0.000e+00
          0.000e+00
          0.000e+00
          0.000e+00
          0.000e+00
          0.000e+00
          0.000e+00
          0.000e+00
          0.000e+00
          0.000e+00
          0.000e+00
          0.000e+00
          0.000e+00
          0.000e+00
          0.000e+00
          0.000e+00
          0.000e+00
          0.000e+00
          0.000e+00
          0.000e+00
          0.000e+00
          0.000e+00
          0.000e+00
          0.000e+00
          0.000e+00
          0.000e+00
          0.000e+00
          0.000e+00
          0.000e+00
          0.000e+00
          0.000e+00
          0.000e+00
          0.000e+00
          0.000e+00
          0.000e+00
          0.000e+00
          0.000e+00
          0.000e+00
          0.000e+00
          0.000e+00
          0.000e+00
          0.000e+00
          0.000e+00
          0.000e+00
          0.000e+00
          0.000e+00
          0.000e+00
          0.000e+00
          0.000e+00
          0.000e+00
          0.000e+00
          0.000e+00
          0.000e+00
          0.000e+00
          0.000e+00
          0.000e+00
          0.000e+00
          0.000e+00
          0.000e+00
          0.000e+00
          0.000e+00
          0.000e+00
          0.000e+00
          0.000e+00
          0.000e+00
          0.000e+00
          0.000e+00
          0.000e+00
          0.000e+00
          0.000e+00
          0.000e+00
          0.000e+00
          0.000e+00
          0.000e+00
          0.000e+00
          0.000e+00
          0.000e+00
          0.000e+00
          0.000e+00
          0.000e+00
          0.000e+00
          0.000e+00
          0.000e+00
          0.000e+00
          0.000e+00
          0.000e+00
          0.000e+00
          0.000e+00
          0.000e+00
          0.000e+00
          0.000e+00
          0.000e+00
          0.000e+00
          0.000e+00
          0.000e+00
          0.000e+00
          0.000e+00
          0.000e+00
          0.000e+00
          0.000e+00
          0.000e+00
          0.000e+00
          0.000e+00
          0.000e+00
          0.000e+00
          0.000e+00
          0.000e+00
          0.000e+00
          0.000e+00
          0.000e+00
          0.000e+00
          0.000e+00
          0.000e+00
          0.000e+00
          0.000e+00
          0.000e+00
          0.000e+00
          0.000e+00
          0.000e+00
          0.000e+00
          0.000e+00
          0.000e+00
          0.000e+00
          0.000e+00
          0.000e+00
          0.000e+00
          0.000e+00
          0.000e+00
          0.000e+00
          0.000e+00
          0.000e+00
          0.000e+00
          0.000e+00
          0.000e+00
          0.000e+00
          0.000e+00
          0.000e+00
          0.000e+00
          0.000e+00
          0.000e+00
          0.000e+00
          0.000e+00
          0.000e+00
          0.000e+00
          0.000e+00
          0.000e+00
          0.000e+00
          0.000e+00
          0.000e+00
          0.000e+00
          0.000e+00
          0.000e+00
          0.000e+00
          0.000e+00
          0.000e+00
          0.000e+00
          0.000e+00
          0.000e+00
          0.000e+00
          0.000e+00
          0.000e+00
          0.000e+00
          0.000e+00
          0.000e+00
          0.000e+00
          0.000e+00
          0.000e+00
          0.000e+00
          0.000e+00
          0.000e+00
          0.000e+00
          0.000e+00
          0.000e+00
          0.000e+00
          0.000e+00
          0.000e+00
          0.000e+00
          0.000e+00
          0.000e+00
          0.000e+00
          0.000e+00
          0.000e+00
          0.000e+00
          0.000e+00
          0.000e+00
          0.000e+00
          0.000e+00
          0.000e+00
          0.000e+00
          0.000e+00
          0.000e+00
          0.000e+00
          0.000e+00
          0.000e+00
          0.000e+00
          0.000e+00
          0.000e+00
          0.000e+00
          0.000e+00
          0.000e+00
          0.000e+00
          0.000e+00
          0.000e+00
          0.000e+00
          0.000e+00
          0.000e+00
          0.000e+00
          0.000e+00
          0.000e+00
          0.000e+00
          0.000e+00
          0.000e+00
          0.000e+00
          0.000e+00
          0.000e+00
          0.000e+00
          0.000e+00
          0.000e+00
          0.000e+00
          0.000e+00
          0.000e+00
          0.000e+00
          0.000e+00
          0.000e+00
          0.000e+00
          0.000e+00
          0.000e+00
          0.000e+00
          0.000e+00
          0.000e+00
          0.000e+00
          0.000e+00
          0.000e+00
          0.000e+00
          0.000e+00
          0.000e+00
          0.000e+00
          0.000e+00
          0.000e+00
          0.000e+00
          0.000e+00
          0.000e+00
          0.000e+00
          0.000e+00
          0.000e+00
          0.000e+00
          0.000e+00
          0.000e+00
          0.000e+00
          0.000e+00
          0.000e+00
          0.000e+00
          0.000e+00
          0.000e+00
          0.000e+00
          0.000e+00
          0.000e+00
          0.000e+00
          0.000e+00
          0.000e+00
          0.000e+00
          0.000e+00
          0.000e+00
          0.000e+00
          0.000e+00
          0.000e+00
          0.000e+00
          0.000e+00
          0.000e+00
          0.000e+00
          0.000e+00
          0.000e+00
          0.000e+00
          0.000e+00
          0.000e+00
          0.000e+00
          0.000e+00
          0.000e+00
          0.000e+00
          0.000e+00
          0.000e+00
          0.000e+00
          0.000e+00
          0.000e+00
          0.000e+00
          0.000e+00
          0.000e+00
          0.000e+00
          0.000e+00
          0.000e+00
          0.000e+00
          0.000e+00
          0.000e+00
          0.000e+00
          0.000e+00
          0.000e+00
          0.000e+00
          0.000e+00
          0.000e+00
          0.000e+00
          0.000e+00
          0.000e+00
          0.000e+00
          0.000e+00
          0.000e+00
          0.000e+00
          0.000e+00
          0.000e+00
          0.000e+00
          0.000e+00
          0.000e+00
          0.000e+00
          0.000e+00
          0.000e+00
          0.000e+00
          0.000e+00
          0.000e+00
          0.000e+00
          0.000e+00
          0.000e+00
          0.000e+00
          0.000e+00
          0.000e+00
          0.000e+00
          0.000e+00
          0.000e+00
          0.000e+00
          0.000e+00
          0.000e+00
          0.000e+00
          0.000e+00
          0.000e+00
          0.000e+00
          0.000e+00
          0.000e+00
          0.000e+00
          0.000e+00
          0.000e+00
          0.000e+00
          0.000e+00
          0.000e+00
          0.000e+00
          0.000e+00
          0.000e+00
          0.000e+00
          0.000e+00
          0.000e+00
          0.000e+00
          0.000e+00
          0.000e+00
          0.000e+00
          0.000e+00
          0.000e+00
          0.000e+00
          0.000e+00
          0.000e+00
          0.000e+00
          0.000e+00
          0.000e+00
          0.000e+00
          0.000e+00
          0.000e+00
          0.000e+00
          0.000e+00
          0.000e+00
          0.000e+00
          0.000e+00
          0.000e+00
          0.000e+00
          0.000e+00
          0.000e+00
          0.000e+00
          0.000e+00
          0.000e+00
          0.000e+00
          0.000e+00
          0.000e+00
          0.000e+00
          0.000e+00
          0.000e+00
          0.000e+00
          0.000e+00
          0.000e+00
          0.000e+00
          0.000e+00
          0.000e+00
          0.000e+00
          0.000e+00
          0.000e+00
          0.000e+00
          0.000e+00
          0.000e+00
          0.000e+00
          0.000e+00
          0.000e+00
          0.000e+00
          0.000e+00
          0.000e+00
          0.000e+00
          0.000e+00
          0.000e+00
          0.000e+00
          0.000e+00
          0.000e+00
          0.000e+00
          0.000e+00
          0.000e+00
          0.000e+00
          0.000e+00
          0.000e+00
          0.000e+00
          0.000e+00
          0.000e+00
          0.000e+00
          0.000e+00
          0.000e+00
          0.000e+00
          0.000e+00
          0.000e+00
          0.000e+00
          0.000e+00
          0.000e+00
          0.000e+00
          0.000e+00
          0.000e+00
          0.000e+00
          0.000e+00
          0.000e+00
          0.000e+00
          0.000e+00
          0.000e+00
          0.000e+00
          0.000e+00
          0.000e+00
          0.000e+00
          0.000e+00
          0.000e+00
          0.000e+00
          0.000e+00
          0.000e+00
          0.000e+00
          0.000e+00
          0.000e+00
          0.000e+00
          0.000e+00
          0.000e+00
          0.000e+00
          0.000e+00
          0.000e+00
          0.000e+00
          0.000e+00
          0.000e+00
          0.000e+00
          0.000e+00
          0.000e+00
          0.000e+00
          0.000e+00
          0.000e+00
          0.000e+00
          0.000e+00
          0.000e+00
          0.000e+00
          0.000e+00
          0.000e+00
          0.000e+00
          0.000e+00
          0.000e+00
          0.000e+00
          0.000e+00
          0.000e+00
          0.000e+00
          0.000e+00
          0.000e+00
          0.000e+00
          0.000e+00
          0.000e+00
          0.000e+00
          0.000e+00
          0.000e+00
          0.000e+00
          0.000e+00
          0.000e+00
          0.000e+00
          0.000e+00
          0.000e+00
          0.000e+00
          0.000e+00
          0.000e+00
          0.000e+00
          0.000e+00
          0.000e+00
          0.000e+00
          0.000e+00
          0.000e+00
          0.000e+00
          0.000e+00
          0.000e+00
          0.000e+00
          0.000e+00
          0.000e+00
          0.000e+00
          0.000e+00
          0.000e+00
          0.000e+00
          0.000e+00
          0.000e+00
          0.000e+00
          0.000e+00
          0.000e+00
          0.000e+00
          0.000e+00
          0.000e+00
          0.000e+00
          0.000e+00
          0.000e+00
          0.000e+00
          0.000e+00
          0.000e+00
          0.000e+00
          0.000e+00
          0.000e+00
          0.000e+00
          0.000e+00
          0.000e+00
          0.000e+00
          0.000e+00
          0.000e+00
          0.000e+00
          0.000e+00
          0.000e+00
          0.000e+00
          0.000e+00
          0.000e+00
          0.000e+00
          0.000e+00
          0.000e+00
          0.000e+00
          0.000e+00