<?xml version="1.0"?>
<VTKFile type="UnstructuredGrid" version="0.1" byte_order="LittleEndian" compressor="vtkZLibDataCompressor">
  <UnstructuredGrid>
    <Piece NumberOfPoints="1254" NumberOfCells="2504">
      <Points>
        <DataArray type="Float32" NumberOfComponents="3" format="ascii">
          1.500e+02 1.320e+02 1.299e+02
          1.494e+02 1.318e+02 1.302e+02
          1.496e+02 1.322e+02 1.297e+02
          1.502e+02 1.321e+02 1.300e+02
          1.497e+02 1.314e+02 1.305e+02
          1.498e+02 1.308e+02 1.309e+02
          1.502e+02 1.325e+02 1.296e+02
          1.500e+02 1.324e+02 1.295e+02
          1.490e+02 1.316e+02 1.304e+02
          1.484e+02 1.320e+02 1.303e+02
          1.498e+02 1.327e+02 1.291e+02
          1.501e+02 1.330e+02 1.289e+02
          1.491e+02 1.322e+02 1.299e+02
          1.494e+02 1.325e+02 1.294e+02
          1.488e+02 1.325e+02 1.296e+02
          1.480e+02 1.326e+02 1.301e+02
          1.502e+02 1.337e+02 1.286e+02
          1.496e+02 1.329e+02 1.286e+02
          1.485e+02 1.330e+02 1.292e+02
          1.498e+02 1.335e+02 1.281e+02
          1.489e+02 1.335e+02 1.287e+02
          1.492e+02 1.287e+02 1.324e+02
          1.493e+02 1.293e+02 1.320e+02
          1.486e+02 1.294e+02 1.319e+02
          1.498e+02 1.304e+02 1.313e+02
          1.495e+02 1.300e+02 1.315e+02
          1.486e+02 1.300e+02 1.315e+02
          1.501e+02 1.310e+02 1.310e+02
          1.505e+02 1.320e+02 1.308e+02
          1.495e+02 1.307e+02 1.310e+02
          1.485e+02 1.311e+02 1.307e+02
          1.488e+02 1.305e+02 1.310e+02
          1.504e+02 1.325e+02 1.302e+02
          1.480e+02 1.317e+02 1.307e+02
          1.479e+02 1.322e+02 1.305e+02
          1.478e+02 1.318e+02 1.309e+02
          1.504e+02 1.333e+02 1.295e+02
          1.477e+02 1.323e+02 1.306e+02
          1.477e+02 1.327e+02 1.302e+02
          1.503e+02 1.343e+02 1.291e+02
          1.501e+02 1.343e+02 1.283e+02
          1.479e+02 1.330e+02 1.296e+02
          1.477e+02 1.334e+02 1.298e+02
          1.500e+02 1.342e+02 1.280e+02
          1.501e+02 1.347e+02 1.283e+02
          1.493e+02 1.339e+02 1.283e+02
          1.482e+02 1.335e+02 1.291e+02
          1.486e+02 1.338e+02 1.288e+02
          1.479e+02 1.341e+02 1.292e+02
          1.502e+02 1.355e+02 1.284e+02
          1.497e+02 1.347e+02 1.281e+02
          1.488e+02 1.344e+02 1.286e+02
          1.481e+02 1.349e+02 1.290e+02
          1.502e+02 1.362e+02 1.286e+02
          1.498e+02 1.357e+02 1.281e+02
          1.489e+02 1.354e+02 1.285e+02
          1.493e+02 1.285e+02 1.329e+02
          1.492e+02 1.281e+02 1.336e+02
          1.489e+02 1.281e+02 1.342e+02
          1.487e+02 1.284e+02 1.347e+02
          1.495e+02 1.288e+02 1.327e+02
          1.490e+02 1.284e+02 1.326e+02
          1.488e+02 1.289e+02 1.324e+02
          1.487e+02 1.287e+02 1.331e+02
          1.485e+02 1.290e+02 1.338e+02
          1.498e+02 1.294e+02 1.323e+02
          1.484e+02 1.293e+02 1.324e+02
          1.480e+02 1.298e+02 1.329e+02
          1.502e+02 1.303e+02 1.318e+02
          1.481e+02 1.299e+02 1.319e+02
          1.477e+02 1.304e+02 1.324e+02
          1.506e+02 1.314e+02 1.317e+02
          1.510e+02 1.322e+02 1.316e+02
          1.480e+02 1.306e+02 1.314e+02
          1.478e+02 1.312e+02 1.313e+02
          1.477e+02 1.309e+02 1.319e+02
          1.507e+02 1.327e+02 1.308e+02
          1.476e+02 1.315e+02 1.316e+02
          1.507e+02 1.335e+02 1.304e+02
          1.474e+02 1.322e+02 1.314e+02
          1.507e+02 1.342e+02 1.301e+02
          1.475e+02 1.329e+02 1.307e+02
          1.505e+02 1.350e+02 1.293e+02
          1.475e+02 1.338e+02 1.301e+02
          1.504e+02 1.359e+02 1.292e+02
          1.477e+02 1.347e+02 1.296e+02
          1.480e+02 1.354e+02 1.291e+02
          1.503e+02 1.366e+02 1.292e+02
          1.501e+02 1.365e+02 1.286e+02
          1.496e+02 1.364e+02 1.285e+02
          1.482e+02 1.358e+02 1.289e+02
          1.488e+02 1.360e+02 1.286e+02
          1.480e+02 1.358e+02 1.291e+02
          1.498e+02 1.373e+02 1.287e+02
          1.490e+02 1.369e+02 1.287e+02
          1.496e+02 1.282e+02 1.351e+02
          1.492e+02 1.280e+02 1.348e+02
          1.486e+02 1.278e+02 1.355e+02
          1.480e+02 1.278e+02 1.368e+02
          1.496e+02 1.284e+02 1.341e+02
          1.485e+02 1.284e+02 1.351e+02
          1.482e+02 1.288e+02 1.353e+02
          1.499e+02 1.288e+02 1.338e+02
          1.484e+02 1.291e+02 1.344e+02
          1.479e+02 1.297e+02 1.345e+02
          1.502e+02 1.298e+02 1.332e+02
          1.480e+02 1.298e+02 1.337e+02
          1.475e+02 1.304e+02 1.340e+02
          1.505e+02 1.309e+02 1.328e+02
          1.476e+02 1.306e+02 1.332e+02
          1.473e+02 1.311e+02 1.337e+02
          1.511e+02 1.318e+02 1.326e+02
          1.513e+02 1.327e+02 1.323e+02
          1.475e+02 1.311e+02 1.325e+02
          1.511e+02 1.330e+02 1.315e+02
          1.473e+02 1.319e+02 1.324e+02
          1.513e+02 1.339e+02 1.311e+02
          1.471e+02 1.327e+02 1.317e+02
          1.511e+02 1.346e+02 1.306e+02
          1.472e+02 1.335e+02 1.312e+02
          1.510e+02 1.354e+02 1.303e+02
          1.473e+02 1.343e+02 1.306e+02
          1.507e+02 1.362e+02 1.301e+02
          1.474e+02 1.351e+02 1.302e+02
          1.506e+02 1.372e+02 1.299e+02
          1.502e+02 1.374e+02 1.291e+02
          1.477e+02 1.359e+02 1.296e+02
          1.480e+02 1.365e+02 1.291e+02
          1.501e+02 1.379e+02 1.292e+02
          1.494e+02 1.376e+02 1.288e+02
          1.483e+02 1.366e+02 1.289e+02
          1.485e+02 1.373e+02 1.289e+02
          1.480e+02 1.369e+02 1.291e+02
          1.480e+02 1.278e+02 1.375e+02
          1.494e+02 1.288e+02 1.364e+02
          1.481e+02 1.278e+02 1.368e+02
          1.488e+02 1.281e+02 1.364e+02
          1.476e+02 1.278e+02 1.373e+02
          1.480e+02 1.281e+02 1.359e+02
          1.499e+02 1.287e+02 1.356e+02
          1.477e+02 1.285e+02 1.360e+02
          1.502e+02 1.293e+02 1.350e+02
          1.478e+02 1.293e+02 1.353e+02
          1.505e+02 1.303e+02 1.342e+02
          1.475e+02 1.302e+02 1.346e+02
          1.509e+02 1.313e+02 1.339e+02
          1.471e+02 1.313e+02 1.342e+02
          1.471e+02 1.316e+02 1.336e+02
          1.513e+02 1.322e+02 1.334e+02
          1.515e+02 1.330e+02 1.331e+02
          1.472e+02 1.316e+02 1.333e+02
          1.469e+02 1.321e+02 1.336e+02
          1.462e+02 1.326e+02 1.338e+02
          1.514e+02 1.335e+02 1.322e+02
          1.470e+02 1.324e+02 1.327e+02
          1.467e+02 1.328e+02 1.328e+02
          1.462e+02 1.332e+02 1.333e+02
          1.515e+02 1.345e+02 1.318e+02
          1.467e+02 1.331e+02 1.320e+02
          1.465e+02 1.337e+02 1.326e+02
          1.514e+02 1.353e+02 1.314e+02
          1.469e+02 1.341e+02 1.316e+02
          1.467e+02 1.347e+02 1.320e+02
          1.513e+02 1.361e+02 1.311e+02
          1.472e+02 1.350e+02 1.311e+02
          1.471e+02 1.356e+02 1.317e+02
          1.509e+02 1.368e+02 1.309e+02
          1.508e+02 1.374e+02 1.310e+02
          1.474e+02 1.358e+02 1.304e+02
          1.506e+02 1.375e+02 1.304e+02
          1.504e+02 1.381e+02 1.300e+02
          1.506e+02 1.379e+02 1.304e+02
          1.475e+02 1.366e+02 1.302e+02
          1.499e+02 1.385e+02 1.295e+02
          1.495e+02 1.382e+02 1.291e+02
          1.493e+02 1.385e+02 1.295e+02
          1.487e+02 1.380e+02 1.291e+02
          1.483e+02 1.381e+02 1.296e+02
          1.478e+02 1.371e+02 1.296e+02
          1.480e+02 1.375e+02 1.294e+02
          1.478e+02 1.376e+02 1.299e+02
          1.479e+02 1.274e+02 1.385e+02
          1.491e+02 1.294e+02 1.373e+02
          1.482e+02 1.279e+02 1.381e+02
          1.487e+02 1.286e+02 1.377e+02
          1.476e+02 1.275e+02 1.386e+02
          1.471e+02 1.281e+02 1.370e+02
          1.496e+02 1.296e+02 1.367e+02
          1.495e+02 1.299e+02 1.374e+02
          1.473e+02 1.287e+02 1.363e+02
          1.503e+02 1.299e+02 1.358e+02
          1.473e+02 1.297e+02 1.355e+02
          1.507e+02 1.308e+02 1.353e+02
          1.470e+02 1.307e+02 1.350e+02
          1.511e+02 1.316e+02 1.349e+02
          1.465e+02 1.317e+02 1.347e+02
          1.462e+02 1.323e+02 1.342e+02
          1.514e+02 1.324e+02 1.342e+02
          1.515e+02 1.330e+02 1.338e+02
          1.517e+02 1.327e+02 1.346e+02
          1.458e+02 1.326e+02 1.341e+02
          1.450e+02 1.329e+02 1.345e+02
          1.515e+02 1.338e+02 1.331e+02
          1.456e+02 1.331e+02 1.337e+02
          1.457e+02 1.336e+02 1.335e+02
          1.450e+02 1.336e+02 1.342e+02
          1.515e+02 1.348e+02 1.326e+02
          1.461e+02 1.338e+02 1.331e+02
          1.458e+02 1.345e+02 1.334e+02
          1.450e+02 1.345e+02 1.341e+02
          1.515e+02 1.358e+02 1.322e+02
          1.464e+02 1.345e+02 1.326e+02
          1.463e+02 1.355e+02 1.330e+02
          1.455e+02 1.355e+02 1.337e+02
          1.514e+02 1.367e+02 1.320e+02
          1.511e+02 1.371e+02 1.315e+02
          1.468e+02 1.354e+02 1.321e+02
          1.471e+02 1.359e+02 1.318e+02
          1.469e+02 1.362e+02 1.324e+02
          1.463e+02 1.366e+02 1.334e+02
          1.510e+02 1.376e+02 1.315e+02
          1.473e+02 1.361e+02 1.311e+02
          1.473e+02 1.366e+02 1.313e+02
          1.472e+02 1.371e+02 1.322e+02
          1.505e+02 1.383e+02 1.311e+02
          1.500e+02 1.390e+02 1.302e+02
          1.487e+02 1.387e+02 1.300e+02
          1.475e+02 1.373e+02 1.305e+02
          1.478e+02 1.381e+02 1.305e+02
          1.475e+02 1.375e+02 1.312e+02
          1.481e+02 1.270e+02 1.392e+02
          1.484e+02 1.276e+02 1.389e+02
          1.490e+02 1.288e+02 1.385e+02
          1.475e+02 1.270e+02 1.391e+02
          1.469e+02 1.283e+02 1.381e+02
          1.471e+02 1.273e+02 1.390e+02
          1.494e+02 1.296e+02 1.380e+02
          1.500e+02 1.303e+02 1.378e+02
          1.469e+02 1.290e+02 1.366e+02
          1.464e+02 1.296e+02 1.365e+02
          1.502e+02 1.305e+02 1.369e+02
          1.467e+02 1.301e+02 1.358e+02
[...]
      <PointData Scalars="JD_Thresh">
        <DataArray type="Float32" Name="JD_Thresh" NumberOfComponents="1" format="ascii">
          0.000e+00
          0.000e+00
          0.000e+00
          0.000e+00
          0.000e+00
          0.000e+00
          0.000e+00
          0.000e+00
          0.000e+00
          0.000e+00
          0.000e+00
          0.000e+00
          0.000e+00
          0.000e+00
          0.000e+00
          0.000e+00
          0.000e+00
          0.000e+00
          0.000e+00
          0.000e+00
          0.000e+00
          0.000e+00
          0.000e+00
          0.000e+00
          0.000e+00
          0.000e+00
          0.000e+00
          0.000e+00
          0.000e+00
          0.000e+00
          0.000e+00
          0.000e+00
          0.000e+00
          0.000e+00
          0.000e+00
          0.000e+00
          0.000e+00
          0.000e+00
          0.000e+00
          0.000e+00
          0.000e+00
          0.000e+00
          0.000e+00
          0.000e+00
          0.000e+00
          0.000e+00
          0.000e+00
          0.000e+00
          0.000e+00
          0.000e+00
          0.000e+00
          0.000e+00
          0.000e+00
          0.000e+00
          0.000e+00
          0.000e+00
          0.000e+00
          0.000e+00
          0.000e+00
          0.000e+00
          0.000e+00
          0.000e+00
          0.000e+00
          0.000e+00
          0.000e+00
          0.000e+00
          0.000e+00
          0.000e+00
          0.000e+00
          0.000e+00
          0.000e+00
          0.000e+00
          0.000e+00
          0.000e+00
          0.000e+00
          0.000e+00
          0.000e+00
          0.000e+00
          0.000e+00
          0.000e+00
          0.000e+00
          0.000e+00
          0.000e+00
          0.000e+00
          0.000e+00
          0.000e+00
          0.000e+00
          0.000e+00
          0.000e+00
          0.000e+00
          0.000e+00
          0.000e+00
          0.000e+00
          0.000e+00
          0.000e+00
          0.000e+00
          0.000e+00
          0.000e+00
          0.000e+00
          0.000e+00
          0.000e+00
          0.000e+00
          0.000e+00
          0.000e+00
          0.000e+00
          0.000e+00
          0.000e+00
          0.000e+00
          0.000e+00
          0.000e+00
          0.000e+00
          0.000e+00
          0.000e+00
          0.000e+00
          0.000e+00
          0.000e+00
          0.000e+00
          0.000e+00
          0.000e+00
          0.000e+00
          0.000e+00
          0.000e+00
          0.000e+00
          0.000e+00
          0.000e+00
          0.000e+00
          0.000e+00
          0.000e+00
          0.000e+00
          0.000e+00
          0.000e+00
          0.000e+00
          0.000e+00
          0.000e+00
          0.000e+00
          0.000e+00
          0.000e+00
          0.000e+00
          0.000e+00
          0.000e+00
          0.000e+00
          0.000e+00
          0.000e+00
          0.000e+00
          0.000e+00
          0.000e+00
          0.000e+00
          0.000e+00
          0.000e+00
          0.000e+00
          0.000e+00
          0.000e+00
          0.000e+00
          0.000e+00
          0.000e+00
          0.000e+00
          0.000e+00
          0.000e+00
          0.000e+00
          0.000e+00
          0.000e+00
          0.000e+00
          0.000e+00
          0.000e+00
          0.000e+00
          0.000e+00
          0.000e+00
          0.000e+00
          0.000e+00
          0.000e+00
          0.000e+00
          0.000e+00
          0.000e+00
          0.000e+00
          0.000e+00
          0.000e+00
          0.000e+00
          0.000e+00
          0.000e+00
          0.000e+00
          0.000e+00
          0.000e+00
          0.000e+00
          0.000e+00
          0.000e+00
          0.000e+00
          0.000e+00
          0.000e+00
          0.000e+00
          0.000e+00
          0.000e+00
          0.000e+00
          0.000e+00
          0.000e+00
          0.000e+00
          0.000e+00
          0.000e+00
          0.000e+00
          0.000e+00
          0.000e+00
          0.000e+00
          0.000e+00
          0.000e+00
          0.000e+00
          0.000e+00
          0.000e+00
          0.000e+00
          0.000e+00
          0.000e+00
          0.000e+00
          0.000e+00
          0.000e+00
          0.000e+00
          0.000e+00
          0.000e+00
          0.000e+00
          0.000e+00
          0.000e+00
          0.000e+00
          0.000e+00
          0.000e+00
          0.000e+00
          0.000e+00
          0.000e+00
          0.000e+00
          0.000e+00
          0.000e+00
          0.000e+00
          0.000e+00
          0.000e+00
          0.000e+00
          0.000e+00
          0.000e+00
          0.000e+00
          0.000e+00
          0.000e+00
          0.000e+00
          0.000e+00
          0.000e+00
          0.000e+00
          0.000e+00
          0.000e+00
          0.000e+00
          0.000e+00
          0.000e+00
          0.000e+00
          0.000e+00
          0.000e+00
          0.000e+00
          0.000e+00
          0.000e+00
          0.000e+00
          0.000e+00
          0.000e+00
          0.000e+00
          0.000e+00
          0.000e+00
          0.000e+00
          0.000e+00
          0.000e+00
          0.000e+00
          0.000e+00
          0.000e+00
          0.000e+00
          0.000e+00
          0.000e+00
          0.000e+00
          0.000e+00
          0.000e+00
          0.000e+00
          0.000e+00
          0.000e+00
          0.000e+00
          0.000e+00
          0.000e+00
          0.000e+00
          0.000e+00
          0.000e+00
          0.000e+00
          0.000e+00
          0.000e+00
          0.000e+00
          0.000e+00
          0.000e+00
          0.000e+00
          0.000e+00
          0.000e+00
          0.000e+00
          0.000e+00
          0.000e+00
          0.000e+00
          0.000e+00
          0.000e+00
          0.000e+00
          0.000e+00
          0.000e+00
          0.000e+00
          0.000e+00
          0.000e+00
          0.000e+00
          0.000e+00
          0.000e+00
          0.000e+00
          0.000e+00
          0.000e+00
          0.000e+00
          0.000e+00
          0.000e+00
          0.000e+00
          0.000e+00
          0.000e+00
          0.000e+00
          0.000e+00
          0.000e+00
          0.000e+00
          0.000e+00
          0.000e+00
          0.000e+00
          0.000e+00
          0.000e+00
          0.000e+00
          0.000e+00
          0.000e+00
          0.000e+00
          0.000e+00
          0.000e+00
          0.000e+00
          0.000e+00
          0.000e+00
          0.000e+00
          0.000e+00
          0.000e+00
          0.000e+00
          0.000e+00
          0.000e+00
          0.000e+00
          0.000e+00
          0.000e+00
          0.000e+00
          0.000e+00
          0.000e+00
          0.000e+00
          0.000e+00
          0.000e+00
          0.000e+00
          0.000e+00
          0.000e+00
          0.000e+00
          0.000e+00
          0.000e+00
          0.000e+00
          0.000e+00
          0.000e+00
          0.000e+00
          0.000e+00
          0.000e+00
          0.000e+00
          0.000e+00
          0.000e+00
          0.000e+00
          0.000e+00
          0.000e+00
          0.000e+00
          0.000e+00
          0.000e+00
          0.000e+00
          0.000e+00
          0.000e+00
          0.000e+00
          0.000e+00
          0.000e+00
          0.000e+00
          0.000e+00
          0.000e+00
          0.000e+00
          0.000e+00
          0.000e+00
          0.000e+00
          0.000e+00
          0.000e+00
          0.000e+00
          0.000e+00
          0.000e+00
          0.000e+00
          0.000e+00
          0.000e+00
          0.000e+00
          0.000e+00
          0.000e+00
          0.000e+00
          0.000e+00
          0.000e+00
          0.000e+00
          0.000e+00
          0.000e+00
          0.000e+00
          0.000e+00
          0.000e+00
          0.000e+00
          0.000e+00
          0.000e+00
          0.000e+00
          0.000e+00
          0.000e+00
          0.000e+00
          0.000e+00
          0.000e+00
          0.000e+00
          0.000e+00
          0.000e+00
          0.000e+00
          0.000e+00
          0.000e+00
          0.000e+00
          0.000e+00
          0.000e+00
          0.000e+00
          0.000e+00
          0.000e+00
          0.000e+00
          0.000e+00
          0.000e+00
          0.000e+00
          0.000e+00
          0.000e+00
          0.000e+00
          0.000e+00
          0.000e+00
          0.000e+00
          0.000e+00
          0.000e+00
          0.000e+00
          0.000e+00
          0.000e+00
          0.000e+00
          0.000e+00
          0.000e+00
          0.000e+00
          0.000e+00
          0.000e+00
          0.000e+00
          0.000e+00
          0.000e+00
          0.000e+00
          0.000e+00
          0.000e+00
          0.000e+00
          0.000e+00
          0.000e+00
          0.000e+00
          0.000e+00
          0.000e+00
          0.000e+00
          0.000e+00
          0.000e+00
          0.000e+00
          0.000e+00
          0.000e+00
          0.000e+00
          0.000e+00
          0.000e+00
          0.000e+00
          0.000e+00
          0.000e+00
          0.000e+00
          0.000e+00
          0.000e+00
          0.000e+00
          0.000e+00
          0.000e+00
          0.000e+00
          0.000e+00
          0.000e+00
          0.000e+00
          0.000e+00
          0.000e+00
          0.000e+00
          0.000e+00
          0.000e+00
          0.000e+00
          0.000e+00
          0.000e+00
          0.000e+00
          0.000e+00
          0.000e+00
          0.000e+00
          0.000e+00
          0.000e+00
          0.000e+00
          0.000e+00
          0.000e+00
          0.000e+00
          0.000e+00
          0.000e+00
          0.000e+00
          0.000e+00
          0.000e+00
          0.000e+00
          0.000e+00
          0.000e+00
          0.000e+00
          0.000e+00
          0.000e+00
          0.000e+00
          0.000e+00
          0.000e+00
          0.000e+00
          0.000e+00
          0.000e+00
          0.000e+00
          0.000e+00
          0.000e+00
          0.000e+00
          0.000e+00
          0.000e+00
          0.000e+00
          0.000e+00
          0.000e+00
          0.000e+00
          0.000e+00
          0.000e+00
          0.000e+00
          0.000e+00
          0.000e+00
          0.000e+00
          0.000e+00
          0.000e+00
          0.000e+00
          0.000e+00
          0.000e+00
          0.000e+00
          0.000e+00
          0.000e+00
          0.000e+00
          0.000e+00
          0.000e+00
          0.000e+00
          0.000e+00
          0.000e+00
          0.000e+00
          0.000e+00
          0.000e+00
          0.000e+00
          0.000e+00
          0.000e+00
          0.000e+00
          0.000e+00
          0.000e+00
          0.000e+00
          0.000e+00
          0.000e+00
          0.000e+00
          0.000e+00
          0.000e+00
          0.000e+00
          0.000e+00
          0.000e+00
          0.000e+00
          0.000e+00
          0.000e+00
          0.000e+00
          0.000e+00
          0.000e+00
          0.000e+00
          0.000e+00
          0.000e+00
          0.000e+00
          0.000e+00
          0.000e+00
          0.000e+00
          0.000e+00
          0.000e+00
          0.000e+00
          0.000e+00
          0.000e+00
          0.000e+00
          0.000e+00
          0.000e+00
          0.000e+00
          0.000e+00
          0.000e+00
          0.000e+00
          0.000e+00
          0.000e+00
          0.000e+00
          0.000e+00
          0.000e+00
          0.000e+00
          0.000e+00
          0.000e+00
          0.000e+00
          0.000e+00
          0.000e+00
          0.000e+00
          0.000e+00
          0.000e+00
          0.000e+00
          0.000e+00
          0.000e+00
          0.000e+00
          0.000e+00
          0.000e+00
          0.000e+00
          0.000e+00
          0.000e+00
          0.000e+00
          0.000e+00
          0.000e+00
          0.000e+00
          0.000e+00
          0.000e+00
          0.000e+00
          0.000e+00
          0.000e+00
          0.000e+00
          0.000e+00
          0.000e+00
          0.000e+00
          0.000e+00
          0.000e+00
          0.000e+00
          0.000e+00
          0.000e+00
          0.000e+00
          0.000e+00
          0.000e+00
          0.000e+00
          0.000e+00
          0.000e+00
          0.000e+00
          0.000e+00
          0.000e+00
          0.000e+00
          0.000e+00
          0.000e+00
          0.000e+00
          0.000e+00
          0.000e+00
          0.000e+00
          0.000e+00
          0.000e+00
          0.000e+00
          0.000e+00
          0.000e+00
          0.000e+00
          0.000e+00
          0.000e+00
          0.000e+00
          0.000e+00
          0.000e+00
          0.000e+00
          0.000e+00
          0.000e+00
          0.000e+00
          0.000e+00
          0.000e+00
          0.000e+00
          0.000e+00
          0.000e+00
          0.000e+00
          0.000e+00
          0.000e+00
          0.000e+00
          0.000e+00
          0.000e+00
          0.000e+00
          0.000e+00
          0.000e+00
          0.000e+00
          0.000e+00
          0.000e+00
          0.000e+00
          0.000e+00
          0.000e+00
          0.000e+00
          0.000e+00
          0.000e+00
          0.000e+00
          0.000e+00
          0.000e+00
          0.000e+00
          0.000e+00
          0.000e+00
          0.000e+00
          0.000e+00
          0.000e+00
          0.000e+00
          0.000e+00
          0.000e+00
          0.000e+00
          0.000e+00
          0.000e+00
          0.000e+00
          0.000e+00
          0.000e+00
          0.000e+00
          0.000e+00
          0.000e+00
          0.000e+00
          0.000e+00
          0.000e+00
          0.000e+00
          0.000e+00
          0.000e+00
          0.000e+00
          0.000e+00
          0.000e+00
          0.000e+00
          0.000e+00
          0.000e+00
          0.000e+00
          0.000e+00
          0.000e+00
          0.000e+00
          0.000e+00
          0.000e+00
          0.000e+00
          0.000e+00
          0.000e+00
          0.000e+00
          0.000e+00
          0.000e+00
          0.000e+00
          0.000e+00
          0.000e+00
          0.000e+00
          0.000e+00
          0.000e+00
          0.000e+00
          0.000e+00
          0.000e+00
          0.000e+00
          0.000e+00
          0.000e+00
          0.000e+00
          0.000e+00
          0.000e+00
          0.000e+00
          0.000e+00
          0.000e+00
          0.000e+00
          0.000e+00
          0.000e+00
          0.000e+00
          0.000e+00
          0.000e+00
          0.000e+00
          0.000e+00
          0.000e+00
          0.000e+00
          0.000e+00
          0.000e+00
          0.000e+00
          0.000e+00
          0.000e+00
          0.000e+00
          0.000e+00
          0.000e+00
          0.000e+00
          0.000e+00
          0.000e+00
          0.000e+00
          0.000e+00
          0.000e+00
          0.000e+00
          0.000e+00
          0.000e+00
          0.000e+00
          0.000e+00
          0.000e+00
          0.000e+00
          0.000e+00
          0.000e+00
          0.000e+00
          0.000e+00
          0.000e+00
          0.000e+00
          0.000e+00
          0.000e+00
          0.000e+00
          0.000e+00
          0.000e+00
          0.000e+00
          0.000e+00
          0.000e+00
          0.000e+00
          0.000e+00
          0.000e+00
          0.000e+00
          0.000e+00
          0.000e+00
          0.000e+00
          0.000e+00
          0.000e+00
          0.000e+00
          0.000e+00
          0.000e+00
          0.000e+00
          0.000e+00
          0.000e+00
          0.000e+00
          0.000e+00
          0.000e+00
          0.000e+00
          0.000e+00
          0.000e+00
          0.000e+00
          0.000e+00
          0.000e+00
          0.000e+00
          0.000e+00
          0.000e+00
          0.000e+00
          0.000e+00
          0.000e+00
          0.000e+00
          0.000e+00
          0.000e+00
          0.000e+00
          0.000e+00
          0.000e+00
          0.000e+00
          0.000e+00
          0.000e+00
          0.000e+00
          0.000e+00
          0.000e+00
          0.000e+00
          0.000e+00
          0.000e+00
          0.000e+00
          0.000e+00
          0.000e+00
          0.000e+00
          0.000e+00
          0.000e+00
          0.000e+00
          0.000e+00
          0.000e+00
          0.000e+00
          0.000e+00
          0.000e+00
          0.000e+00
          0.000e+00
          0.000e+00
          0.000e+00
          0.000e+00
          0.000e+00
          0.000e+00
          0.000e+00
          0.000e+00
          0.000e+00
          0.000e+00
          0.000e+00
          0.000e+00
          0.000e+00
          0.000e+00
          0.000e+00
          0.000e+00
          0.000e+00
          0.000e+00
          0.000e+00
          0.000e+00
          0.000e+00
          0.000e+00
          0.000e+00
          0.000e+00
          0.000e+00
          0.000e+00
          0.000e+00
          0.000e+00
          0.000e+00
          0.000e+00
          0.000e+00
          0.000e+00
          0.000e+00
          0.000e+00
          0.000e+00
          0.000e+00
          0.000e+00
          0.000e+00
          0.000e+00
          0.000e+00
          0.000e+00
          0.000e+00
          0.000e+00
          0.000e+00
          0.000e+00
          0.000e+00
          0.000e+00
          0.000e+00
          0.000e+00
          0.000e+00
          0.000e+00
          0.000e+00
          0.000e+00
          0.000e+00
          0.000e+00
          0.000e+00
          0.000e+00
          0.000e+00
          0.000e+00
          0.000e+00
          0.000e+00
          0.000e+00
          0.000e+00
          0.000e+00
          0.000e+00
          0.000e+00
          0.000e+00
          0.000e+00
          0.000e+00
          0.000e+00
          0.000e+00
          0.000e+00
          0.000e+00
          0.000e+00
          0.000e+00
          0.000e+00
          0.000e+00
          0.000e+00
          0.000e+00
          0.000e+00
          0.000e+00
          0.000e+00
          0.000e+00
          0.000e+00
          0.000e+00
          0.000e+00
          0.000e+00
          0.000e+00
          0.000e+00
          0.000e+00
          0.000e+00
          0.000e+00
          0.000e+00
          0.000e+00
          0.000e+00
          0.000e+00
          0.000e+00
          0.000e+00
          0.000e+00
          0.000e+00
          0.000e+00
          0.000e+00
          0.000e+00
          0.000e+00
          0.000e+00
          0.000e+00
          0.000e+00
          0.000e+00
          0.000e+00
          0.000e+00
          0.000e+00
          0.000e+00
          0.000e+00
          0.000e+00
          0.000e+00
          0.000e+00
          0.000e+00
          0.000e+00
          0.000e+00
          0.000e+00
          0.000e+00
          0.000e+00
          0.000e+00
          0.000e+00
          0.000e+00
          0.000e+00
          0.000e+00
          0.000e+00
          0.000e+00
          0.000e+00
          0.000e+00
          0.000e+00
          0.000e+00
          0.000e+00
          0.000e+00
          0.000e+00
          0.000e+00
          0.000e+00
          0.000e+00
          0.000e+00
          0.000e+00
          0.000e+00
          0.000e+00
          0.000e+00
          0.000e+00
          0.000e+00
          0.000e+00
          0.000e+00
          0.000e+00
          0.000e+00