<?xml version="1.0"?>
<VTKFile type="UnstructuredGrid" version="0.1" byte_order="LittleEndian" compressor="vtkZLibDataCompressor">
  <UnstructuredGrid>
    <Piece NumberOfPoints="1368" NumberOfCells="2732">
      <Points>
        <DataArray type="Float32" NumberOfComponents="3" format="ascii">
          1.052e+02 1.448e+02 1.383e+02
          1.059e+02 1.448e+02 1.382e+02
          1.052e+02 1.448e+02 1.386e+02
          1.055e+02 1.447e+02 1.393e+02
          1.059e+02 1.447e+02 1.384e+02
          1.067e+02 1.443e+02 1.388e+02
          1.075e+02 1.440e+02 1.387e+02
          1.050e+02 1.450e+02 1.387e+02
          1.046e+02 1.452e+02 1.397e+02
          1.052e+02 1.450e+02 1.381e+02
          1.064e+02 1.447e+02 1.382e+02
          1.062e+02 1.448e+02 1.381e+02
          1.074e+02 1.447e+02 1.381e+02
          1.083e+02 1.444e+02 1.385e+02
          1.025e+02 1.468e+02 1.404e+02
          1.028e+02 1.466e+02 1.400e+02
          1.035e+02 1.461e+02 1.398e+02
          1.043e+02 1.459e+02 1.395e+02
          1.048e+02 1.456e+02 1.385e+02
          1.063e+02 1.453e+02 1.379e+02
          1.079e+02 1.452e+02 1.379e+02
          1.023e+02 1.472e+02 1.402e+02
          1.055e+02 1.448e+02 1.403e+02
          1.063e+02 1.443e+02 1.393e+02
          1.071e+02 1.439e+02 1.390e+02
          1.051e+02 1.448e+02 1.400e+02
          1.045e+02 1.452e+02 1.401e+02
          1.045e+02 1.454e+02 1.406e+02
          1.077e+02 1.438e+02 1.391e+02
          1.084e+02 1.440e+02 1.389e+02
          1.022e+02 1.468e+02 1.405e+02
          1.026e+02 1.464e+02 1.405e+02
          1.028e+02 1.460e+02 1.409e+02
          1.038e+02 1.457e+02 1.401e+02
          1.030e+02 1.461e+02 1.401e+02
          1.033e+02 1.457e+02 1.406e+02
          1.089e+02 1.442e+02 1.387e+02
          1.087e+02 1.446e+02 1.385e+02
          1.095e+02 1.446e+02 1.388e+02
          1.105e+02 1.447e+02 1.392e+02
          1.111e+02 1.448e+02 1.393e+02
          1.023e+02 1.469e+02 1.404e+02
          1.031e+02 1.468e+02 1.398e+02
          1.040e+02 1.465e+02 1.397e+02
          1.048e+02 1.461e+02 1.390e+02
          1.056e+02 1.459e+02 1.379e+02
          1.072e+02 1.457e+02 1.379e+02
          1.085e+02 1.450e+02 1.382e+02
          1.083e+02 1.456e+02 1.380e+02
          1.089e+02 1.451e+02 1.384e+02
          1.096e+02 1.454e+02 1.387e+02
          1.103e+02 1.452e+02 1.389e+02
          1.022e+02 1.472e+02 1.404e+02
          1.019e+02 1.475e+02 1.408e+02
          1.025e+02 1.473e+02 1.401e+02
          1.022e+02 1.475e+02 1.403e+02
          1.029e+02 1.475e+02 1.400e+02
          1.035e+02 1.473e+02 1.399e+02
          1.022e+02 1.480e+02 1.406e+02
          1.043e+02 1.454e+02 1.411e+02
          1.056e+02 1.450e+02 1.410e+02
          1.065e+02 1.443e+02 1.402e+02
          1.073e+02 1.438e+02 1.397e+02
          1.027e+02 1.460e+02 1.415e+02
          1.038e+02 1.455e+02 1.409e+02
          1.031e+02 1.457e+02 1.411e+02
          1.081e+02 1.437e+02 1.397e+02
          1.085e+02 1.438e+02 1.394e+02
          1.089e+02 1.437e+02 1.400e+02
          1.094e+02 1.441e+02 1.394e+02
          1.095e+02 1.439e+02 1.401e+02
          1.102e+02 1.445e+02 1.394e+02
          1.111e+02 1.448e+02 1.395e+02
          1.026e+02 1.462e+02 1.412e+02
          1.022e+02 1.466e+02 1.411e+02
          1.115e+02 1.448e+02 1.396e+02
          1.113e+02 1.449e+02 1.394e+02
          1.020e+02 1.470e+02 1.408e+02
          1.018e+02 1.473e+02 1.410e+02
          1.019e+02 1.470e+02 1.413e+02
          1.047e+02 1.468e+02 1.395e+02
          1.054e+02 1.465e+02 1.387e+02
          1.065e+02 1.464e+02 1.382e+02
          1.079e+02 1.463e+02 1.382e+02
          1.090e+02 1.459e+02 1.385e+02
          1.100e+02 1.458e+02 1.389e+02
          1.110e+02 1.452e+02 1.390e+02
          1.107e+02 1.455e+02 1.390e+02
          1.114e+02 1.455e+02 1.394e+02
          1.119e+02 1.458e+02 1.397e+02
          1.018e+02 1.476e+02 1.410e+02
          1.019e+02 1.477e+02 1.408e+02
          1.029e+02 1.479e+02 1.401e+02
          1.039e+02 1.471e+02 1.399e+02
          1.036e+02 1.477e+02 1.400e+02
          1.043e+02 1.473e+02 1.399e+02
          1.051e+02 1.472e+02 1.396e+02
          1.061e+02 1.470e+02 1.388e+02
          1.073e+02 1.468e+02 1.385e+02
          1.085e+02 1.467e+02 1.387e+02
          1.095e+02 1.466e+02 1.390e+02
          1.105e+02 1.463e+02 1.392e+02
          1.114e+02 1.465e+02 1.395e+02
          1.021e+02 1.481e+02 1.408e+02
          1.019e+02 1.481e+02 1.412e+02
          1.023e+02 1.479e+02 1.404e+02
          1.022e+02 1.482e+02 1.408e+02
          1.038e+02 1.455e+02 1.419e+02
          1.048e+02 1.452e+02 1.417e+02
          1.061e+02 1.449e+02 1.414e+02
          1.068e+02 1.446e+02 1.414e+02
          1.073e+02 1.442e+02 1.406e+02
          1.079e+02 1.442e+02 1.410e+02
          1.082e+02 1.438e+02 1.403e+02
          1.088e+02 1.438e+02 1.411e+02
          1.093e+02 1.437e+02 1.407e+02
          1.093e+02 1.437e+02 1.413e+02
          1.026e+02 1.462e+02 1.423e+02
          1.035e+02 1.456e+02 1.415e+02
          1.030e+02 1.458e+02 1.419e+02
          1.099e+02 1.439e+02 1.406e+02
          1.103e+02 1.442e+02 1.402e+02
          1.105e+02 1.439e+02 1.407e+02
          1.111e+02 1.446e+02 1.400e+02
          1.020e+02 1.468e+02 1.417e+02
          1.021e+02 1.467e+02 1.422e+02
          1.024e+02 1.462e+02 1.417e+02
          1.022e+02 1.465e+02 1.417e+02
          1.023e+02 1.464e+02 1.422e+02
          1.117e+02 1.446e+02 1.403e+02
          1.121e+02 1.454e+02 1.399e+02
          1.018e+02 1.471e+02 1.415e+02
          1.122e+02 1.459e+02 1.400e+02
          1.121e+02 1.462e+02 1.399e+02
          1.127e+02 1.463e+02 1.403e+02
          1.134e+02 1.464e+02 1.407e+02
          1.017e+02 1.476e+02 1.415e+02
          1.031e+02 1.484e+02 1.408e+02
          1.035e+02 1.482e+02 1.404e+02
          1.043e+02 1.479e+02 1.404e+02
          1.054e+02 1.477e+02 1.399e+02
          1.066e+02 1.475e+02 1.392e+02
          1.077e+02 1.473e+02 1.390e+02
          1.089e+02 1.473e+02 1.392e+02
          1.099e+02 1.470e+02 1.393e+02
          1.108e+02 1.470e+02 1.395e+02
          1.119e+02 1.468e+02 1.398e+02
          1.114e+02 1.471e+02 1.397e+02
          1.123e+02 1.469e+02 1.400e+02
          1.129e+02 1.470e+02 1.403e+02
          1.134e+02 1.470e+02 1.406e+02
          1.018e+02 1.482e+02 1.414e+02
          1.020e+02 1.484e+02 1.412e+02
          1.025e+02 1.483e+02 1.408e+02
          1.024e+02 1.486e+02 1.412e+02
          1.043e+02 1.485e+02 1.410e+02
          1.049e+02 1.483e+02 1.407e+02
          1.059e+02 1.481e+02 1.400e+02
          1.072e+02 1.479e+02 1.396e+02
          1.083e+02 1.478e+02 1.395e+02
          1.094e+02 1.477e+02 1.396e+02
          1.103e+02 1.477e+02 1.396e+02
          1.112e+02 1.477e+02 1.398e+02
          1.062e+02 1.449e+02 1.423e+02
          1.075e+02 1.444e+02 1.417e+02
          1.085e+02 1.440e+02 1.417e+02
          1.093e+02 1.437e+02 1.417e+02
          1.036e+02 1.456e+02 1.427e+02
          1.057e+02 1.450e+02 1.422e+02
          1.045e+02 1.453e+02 1.424e+02
          1.050e+02 1.452e+02 1.427e+02
          1.098e+02 1.436e+02 1.416e+02
          1.104e+02 1.437e+02 1.413e+02
          1.103e+02 1.436e+02 1.419e+02
          1.020e+02 1.467e+02 1.424e+02
          1.024e+02 1.465e+02 1.427e+02
          1.027e+02 1.462e+02 1.430e+02
          1.032e+02 1.457e+02 1.423e+02
          1.030e+02 1.459e+02 1.427e+02
          1.110e+02 1.438e+02 1.411e+02
          1.112e+02 1.442e+02 1.407e+02
          1.114e+02 1.439e+02 1.413e+02
          1.019e+02 1.469e+02 1.422e+02
          1.020e+02 1.469e+02 1.426e+02
          1.022e+02 1.467e+02 1.428e+02
          1.120e+02 1.443e+02 1.412e+02
          1.124e+02 1.450e+02 1.408e+02
          1.127e+02 1.457e+02 1.406e+02
          1.132e+02 1.461e+02 1.407e+02
          1.018e+02 1.473e+02 1.421e+02
          1.136e+02 1.462e+02 1.408e+02
          1.017e+02 1.478e+02 1.419e+02
          1.033e+02 1.488e+02 1.413e+02
          1.038e+02 1.486e+02 1.410e+02
          1.125e+02 1.478e+02 1.401e+02
          1.133e+02 1.474e+02 1.404e+02
          1.137e+02 1.468e+02 1.407e+02
          1.138e+02 1.473e+02 1.407e+02
          1.017e+02 1.485e+02 1.418e+02
          1.019e+02 1.487e+02 1.416e+02
          1.029e+02 1.488e+02 1.413e+02
          1.026e+02 1.490e+02 1.416e+02
          1.032e+02 1.490e+02 1.416e+02
          1.041e+02 1.488e+02 1.413e+02
          1.038e+02 1.490e+02 1.416e+02
          1.045e+02 1.490e+02 1.414e+02
          1.054e+02 1.487e+02 1.408e+02
          1.065e+02 1.485e+02 1.403e+02
          1.077e+02 1.484e+02 1.400e+02
          1.088e+02 1.484e+02 1.399e+02
          1.098e+02 1.483e+02 1.399e+02
          1.106e+02 1.483e+02 1.399e+02
          1.119e+02 1.479e+02 1.399e+02
          1.113e+02 1.483e+02 1.400e+02
          1.045e+02 1.495e+02 1.419e+02
          1.052e+02 1.492e+02 1.415e+02
          1.061e+02 1.491e+02 1.409e+02
          1.073e+02 1.490e+02 1.406e+02
          1.085e+02 1.490e+02 1.403e+02
          1.095e+02 1.490e+02 1.402e+02
          1.103e+02 1.489e+02 1.402e+02
          1.111e+02 1.489e+02 1.402e+02
          1.049e+02 1.452e+02 1.432e+02
          1.064e+02 1.448e+02 1.430e+02
          1.073e+02 1.445e+02 1.424e+02
          1.085e+02 1.443e+02 1.423e+02
          1.093e+02 1.438e+02 1.424e+02
          1.102e+02 1.436e+02 1.423e+02
          1.044e+02 1.454e+02 1.431e+02
          1.037e+02 1.457e+02 1.434e+02
          1.107e+02 1.436e+02 1.422e+02
          1.112e+02 1.437e+02 1.418e+02
          1.113e+02 1.437e+02 1.426e+02
          1.028e+02 1.465e+02 1.434e+02
          1.032e+02 1.458e+02 1.432e+02
          1.030e+02 1.462e+02 1.435e+02
          1.118e+02 1.437e+02 1.420e+02
          1.020e+02 1.470e+02 1.430e+02
          1.024e+02 1.466e+02 1.431e+02
          1.023e+02 1.467e+02 1.431e+02
          1.027e+02 1.468e+02 1.436e+02
          1.123e+02 1.442e+02 1.420e+02
[...]
      <PointData Scalars="JD_Thresh">
        <DataArray type="Float32" Name="JD_Thresh" NumberOfComponents="1" format="ascii">
          0.000e+00
          0.000e+00
          0.000e+00
          0.000e+00
          0.000e+00
          0.000e+00
          0.000e+00
          0.000e+00
          0.000e+00
          0.000e+00
          0.000e+00
          0.000e+00
          0.000e+00
          0.000e+00
          0.000e+00
          0.000e+00
          0.000e+00
          0.000e+00
          0.000e+00
          0.000e+00
          0.000e+00
          0.000e+00
          0.000e+00
          0.000e+00
          0.000e+00
          0.000e+00
          0.000e+00
          0.000e+00
          0.000e+00
          0.000e+00
          0.000e+00
          0.000e+00
          0.000e+00
          0.000e+00
          0.000e+00
          0.000e+00
          0.000e+00
          0.000e+00
          0.000e+00
          0.000e+00
          0.000e+00
          0.000e+00
          0.000e+00
          0.000e+00
          0.000e+00
          0.000e+00
          0.000e+00
          0.000e+00
          0.000e+00
          0.000e+00
          0.000e+00
          0.000e+00
          0.000e+00
          0.000e+00
          0.000e+00
          0.000e+00
          0.000e+00
          0.000e+00
          0.000e+00
          0.000e+00
          0.000e+00
          0.000e+00
          0.000e+00
          0.000e+00
          0.000e+00
          0.000e+00
          0.000e+00
          0.000e+00
          0.000e+00
          0.000e+00
          0.000e+00
          0.000e+00
          0.000e+00
          0.000e+00
          0.000e+00
          0.000e+00
          0.000e+00
          0.000e+00
          0.000e+00
          0.000e+00
          0.000e+00
          0.000e+00
          0.000e+00
          0.000e+00
          0.000e+00
          0.000e+00
          0.000e+00
          0.000e+00
          0.000e+00
          0.000e+00
          0.000e+00
          0.000e+00
          0.000e+00
          0.000e+00
          0.000e+00
          0.000e+00
          0.000e+00
          0.000e+00
          0.000e+00
          0.000e+00
          0.000e+00
          0.000e+00
          0.000e+00
          0.000e+00
          0.000e+00
          0.000e+00
          0.000e+00
          0.000e+00
          0.000e+00
          0.000e+00
          0.000e+00
          0.000e+00
          0.000e+00
          0.000e+00
          0.000e+00
          0.000e+00
          0.000e+00
          0.000e+00
          0.000e+00
          0.000e+00
          0.000e+00
          0.000e+00
          0.000e+00
          0.000e+00
          0.000e+00
          0.000e+00
          0.000e+00
          0.000e+00
          0.000e+00
          0.000e+00
          0.000e+00
          0.000e+00
          0.000e+00
          0.000e+00
          0.000e+00
          0.000e+00
          0.000e+00
          0.000e+00
          0.000e+00
          0.000e+00
          0.000e+00
          0.000e+00
          0.000e+00
          0.000e+00
          0.000e+00
          0.000e+00
          0.000e+00
          0.000e+00
          0.000e+00
          0.000e+00
          0.000e+00
          0.000e+00
          0.000e+00
          0.000e+00
          0.000e+00
          0.000e+00
          0.000e+00
          0.000e+00
          0.000e+00
          0.000e+00
          0.000e+00
          0.000e+00
          0.000e+00
          0.000e+00
          0.000e+00
          0.000e+00
          0.000e+00
          0.000e+00
          0.000e+00
          0.000e+00
          0.000e+00
          0.000e+00
          0.000e+00
          0.000e+00
          0.000e+00
          0.000e+00
          0.000e+00
          0.000e+00
          0.000e+00
          0.000e+00
          0.000e+00
          0.000e+00
          0.000e+00
          0.000e+00
          0.000e+00
          0.000e+00
          0.000e+00
          0.000e+00
          0.000e+00
          0.000e+00
          0.000e+00
          0.000e+00
          0.000e+00
          0.000e+00
          0.000e+00
          0.000e+00
          0.000e+00
          0.000e+00
          0.000e+00
          0.000e+00
          0.000e+00
          0.000e+00
          0.000e+00
          0.000e+00
          0.000e+00
          0.000e+00
          0.000e+00
          0.000e+00
          0.000e+00
          0.000e+00
          0.000e+00
          0.000e+00
          0.000e+00
          0.000e+00
          0.000e+00
          0.000e+00
          0.000e+00
          0.000e+00
          0.000e+00
          0.000e+00
          0.000e+00
          0.000e+00
          0.000e+00
          0.000e+00
          0.000e+00
          0.000e+00
          0.000e+00
          0.000e+00
          0.000e+00
          0.000e+00
          0.000e+00
          0.000e+00
          0.000e+00
          0.000e+00
          0.000e+00
          0.000e+00
          0.000e+00
          0.000e+00
          0.000e+00
          0.000e+00
          0.000e+00
          0.000e+00
          0.000e+00
          0.000e+00
          0.000e+00
          0.000e+00
          0.000e+00
          0.000e+00
          0.000e+00
          0.000e+00
          0.000e+00
          0.000e+00
          0.000e+00
          0.000e+00
          0.000e+00
          0.000e+00
          0.000e+00
          0.000e+00
          0.000e+00
          0.000e+00
          0.000e+00
          0.000e+00
          0.000e+00
          0.000e+00
          0.000e+00
          0.000e+00
          0.000e+00
          0.000e+00
          0.000e+00
          0.000e+00
          0.000e+00
          0.000e+00
          0.000e+00
          0.000e+00
          0.000e+00
          0.000e+00
          0.000e+00
          0.000e+00
          0.000e+00
          0.000e+00
          0.000e+00
          0.000e+00
          0.000e+00
          0.000e+00
          0.000e+00
          0.000e+00
          0.000e+00
          0.000e+00
          0.000e+00
          0.000e+00
          0.000e+00
          0.000e+00
          0.000e+00
          0.000e+00
          0.000e+00
          0.000e+00
          0.000e+00
          0.000e+00
          0.000e+00
          0.000e+00
          0.000e+00
          0.000e+00
          0.000e+00
          0.000e+00
          0.000e+00
          0.000e+00
          0.000e+00
          0.000e+00
          0.000e+00
          0.000e+00
          0.000e+00
          0.000e+00
          0.000e+00
          0.000e+00
          0.000e+00
          0.000e+00
          0.000e+00
          0.000e+00
          0.000e+00
          0.000e+00
          0.000e+00
          0.000e+00
          0.000e+00
          0.000e+00
          0.000e+00
          0.000e+00
          0.000e+00
          0.000e+00
          0.000e+00
          0.000e+00
          0.000e+00
          0.000e+00
          0.000e+00
          0.000e+00
          0.000e+00
          0.000e+00
          0.000e+00
          0.000e+00
          0.000e+00
          0.000e+00
          0.000e+00
          0.000e+00
          0.000e+00
          0.000e+00
          0.000e+00
          0.000e+00
          0.000e+00
          0.000e+00
          0.000e+00
          0.000e+00
          0.000e+00
          0.000e+00
          0.000e+00
          0.000e+00
          0.000e+00
          0.000e+00
          0.000e+00
          0.000e+00
          0.000e+00
          0.000e+00
          0.000e+00
          0.000e+00
          0.000e+00
          0.000e+00
          0.000e+00
          0.000e+00
          0.000e+00
          0.000e+00
          0.000e+00
          0.000e+00
          0.000e+00
          0.000e+00
          0.000e+00
          0.000e+00
          0.000e+00
          0.000e+00
          0.000e+00
          0.000e+00
          0.000e+00
          0.000e+00
          0.000e+00
          0.000e+00
          0.000e+00
          0.000e+00
          0.000e+00
          0.000e+00
          0.000e+00
          0.000e+00
          0.000e+00
          0.000e+00
          0.000e+00
          0.000e+00
          0.000e+00
          0.000e+00
          0.000e+00
          0.000e+00
          0.000e+00
          0.000e+00
          0.000e+00
          0.000e+00
          0.000e+00
          0.000e+00
          0.000e+00
          0.000e+00
          0.000e+00
          0.000e+00
          0.000e+00
          0.000e+00
          0.000e+00
          0.000e+00
          0.000e+00
          0.000e+00
          0.000e+00
          0.000e+00
          0.000e+00
          0.000e+00
          0.000e+00
          0.000e+00
          0.000e+00
          0.000e+00
          0.000e+00
          0.000e+00
          0.000e+00
          0.000e+00
          0.000e+00
          0.000e+00
          0.000e+00
          0.000e+00
          0.000e+00
          0.000e+00
          0.000e+00
          0.000e+00
          0.000e+00
          0.000e+00
          0.000e+00
          0.000e+00
          0.000e+00
          0.000e+00
          0.000e+00
          0.000e+00
          0.000e+00
          0.000e+00
          0.000e+00
          0.000e+00
          0.000e+00
          0.000e+00
          0.000e+00
          0.000e+00
          0.000e+00
          0.000e+00
          0.000e+00
          0.000e+00
          0.000e+00
          0.000e+00
          0.000e+00
          0.000e+00
          0.000e+00
          0.000e+00
          0.000e+00
          0.000e+00
          0.000e+00
          0.000e+00
          0.000e+00
          0.000e+00
          0.000e+00
          0.000e+00
          0.000e+00
          0.000e+00
          0.000e+00
          0.000e+00
          0.000e+00
          0.000e+00
          0.000e+00
          0.000e+00
          0.000e+00
          0.000e+00
          0.000e+00
          0.000e+00
          0.000e+00
          0.000e+00
          0.000e+00
          0.000e+00
          0.000e+00
          0.000e+00
          0.000e+00
          0.000e+00
          0.000e+00
          0.000e+00
          0.000e+00
          0.000e+00
          0.000e+00
          0.000e+00
          0.000e+00
          0.000e+00
          0.000e+00
          0.000e+00
          0.000e+00
          0.000e+00
          0.000e+00
          0.000e+00
          0.000e+00
          0.000e+00
          0.000e+00
          0.000e+00
          0.000e+00
          0.000e+00
          0.000e+00
          0.000e+00
          0.000e+00
          0.000e+00
          0.000e+00
          0.000e+00
          0.000e+00
          0.000e+00
          0.000e+00
          0.000e+00
          0.000e+00
          0.000e+00
          0.000e+00
          0.000e+00
          0.000e+00
          0.000e+00
          0.000e+00
          0.000e+00
          0.000e+00
          0.000e+00
          0.000e+00
          0.000e+00
          0.000e+00
          0.000e+00
          0.000e+00
          0.000e+00
          0.000e+00
          0.000e+00
          0.000e+00
          0.000e+00
          0.000e+00
          0.000e+00
          0.000e+00
          0.000e+00
          0.000e+00
          0.000e+00
          0.000e+00
          0.000e+00
          0.000e+00
          0.000e+00
          0.000e+00
          0.000e+00
          0.000e+00
          0.000e+00
          0.000e+00
          0.000e+00
          0.000e+00
          0.000e+00
          0.000e+00
          0.000e+00
          0.000e+00
          0.000e+00
          0.000e+00
          0.000e+00
          0.000e+00
          0.000e+00
          0.000e+00
          0.000e+00
          0.000e+00
          0.000e+00
          0.000e+00
          0.000e+00
          0.000e+00
          0.000e+00
          0.000e+00
          0.000e+00
          0.000e+00
          0.000e+00
          0.000e+00
          0.000e+00
          0.000e+00
          0.000e+00
          0.000e+00
          0.000e+00
          0.000e+00
          0.000e+00
          0.000e+00
          0.000e+00
          0.000e+00
          0.000e+00
          0.000e+00
          0.000e+00
          0.000e+00
          0.000e+00
          0.000e+00
          0.000e+00
          0.000e+00
          0.000e+00
          0.000e+00
          0.000e+00
          0.000e+00
          0.000e+00
          0.000e+00
          0.000e+00
          0.000e+00
          0.000e+00
          0.000e+00
          0.000e+00
          0.000e+00
          0.000e+00
          0.000e+00
          0.000e+00
          0.000e+00
          0.000e+00
          0.000e+00
          0.000e+00
          0.000e+00
          0.000e+00
          0.000e+00
          0.000e+00
          0.000e+00
          0.000e+00
          0.000e+00
          0.000e+00
          0.000e+00
          0.000e+00
          0.000e+00
          0.000e+00
          0.000e+00
          0.000e+00
          0.000e+00
          0.000e+00
          0.000e+00
          0.000e+00
          0.000e+00
          0.000e+00
          0.000e+00
          0.000e+00
          0.000e+00
          0.000e+00
          0.000e+00
          0.000e+00
          0.000e+00
          0.000e+00
          0.000e+00
          0.000e+00
          0.000e+00
          0.000e+00
          0.000e+00
          0.000e+00
          0.000e+00
          0.000e+00
          0.000e+00
          0.000e+00
          0.000e+00
          0.000e+00
          0.000e+00
          0.000e+00
          0.000e+00
          0.000e+00
          0.000e+00
          0.000e+00
          0.000e+00
          0.000e+00
          0.000e+00
          0.000e+00
          0.000e+00
          0.000e+00
          0.000e+00
          0.000e+00
          0.000e+00
          0.000e+00
          0.000e+00
          0.000e+00
          0.000e+00
          0.000e+00
          0.000e+00
          0.000e+00
          0.000e+00
          0.000e+00
          0.000e+00
          0.000e+00
          0.000e+00
          0.000e+00
          0.000e+00
          0.000e+00
          0.000e+00
          0.000e+00
          0.000e+00
          0.000e+00
          0.000e+00
          0.000e+00
          0.000e+00
          0.000e+00
          0.000e+00
          0.000e+00
          0.000e+00
          0.000e+00
          0.000e+00
          0.000e+00
          0.000e+00
          0.000e+00
          0.000e+00
          0.000e+00
          0.000e+00
          0.000e+00
          0.000e+00
          0.000e+00
          0.000e+00
          0.000e+00
          0.000e+00
          0.000e+00
          0.000e+00
          0.000e+00
          0.000e+00
          0.000e+00
          0.000e+00
          0.000e+00
          0.000e+00
          0.000e+00
          0.000e+00
          0.000e+00
          0.000e+00
          0.000e+00
          0.000e+00
          0.000e+00
          0.000e+00
          0.000e+00
          0.000e+00
          0.000e+00
          0.000e+00
          0.000e+00
          0.000e+00
          0.000e+00
          0.000e+00
          0.000e+00
          0.000e+00
          0.000e+00
          0.000e+00
          0.000e+00
          0.000e+00
          0.000e+00
          0.000e+00
          0.000e+00
          0.000e+00
          0.000e+00
          0.000e+00
          0.000e+00
          0.000e+00
          0.000e+00
          0.000e+00
          0.000e+00
          0.000e+00
          0.000e+00
          0.000e+00
          0.000e+00
          0.000e+00
          0.000e+00
          0.000e+00
          0.000e+00
          0.000e+00
          0.000e+00
          0.000e+00
          0.000e+00
          0.000e+00
          0.000e+00
          0.000e+00
          0.000e+00
          0.000e+00
          0.000e+00
          0.000e+00
          0.000e+00
          0.000e+00
          0.000e+00
          0.000e+00
          0.000e+00
          0.000e+00
          0.000e+00
          0.000e+00
          0.000e+00
          0.000e+00
          0.000e+00
          0.000e+00
          0.000e+00
          0.000e+00
          0.000e+00
          0.000e+00
          0.000e+00
          0.000e+00
          0.000e+00
          0.000e+00
          0.000e+00
          0.000e+00
          0.000e+00
          0.000e+00
          0.000e+00
          0.000e+00
          0.000e+00
          0.000e+00
          0.000e+00
          0.000e+00
          0.000e+00
          0.000e+00
          0.000e+00
          0.000e+00
          0.000e+00
          0.000e+00
          0.000e+00
          0.000e+00
          0.000e+00
          0.000e+00
          0.000e+00
          0.000e+00
          0.000e+00
          0.000e+00
          0.000e+00
          0.000e+00
          0.000e+00
          0.000e+00
          0.000e+00
          0.000e+00
          0.000e+00
          0.000e+00
          0.000e+00
          0.000e+00
          0.000e+00
          0.000e+00
          0.000e+00
          0.000e+00
          0.000e+00
          0.000e+00
          0.000e+00
          0.000e+00
          0.000e+00
          0.000e+00
          0.000e+00
          0.000e+00
          0.000e+00
          0.000e+00
          0.000e+00
          0.000e+00
          0.000e+00
          0.000e+00
          0.000e+00
          0.000e+00
          0.000e+00
          0.000e+00
          0.000e+00
          0.000e+00
          0.000e+00
          0.000e+00
          0.000e+00
          0.000e+00
          0.000e+00
          0.000e+00
          0.000e+00
          0.000e+00
          0.000e+00
          0.000e+00
          0.000e+00
          0.000e+00
          0.000e+00
          0.000e+00
          0.000e+00
          0.000e+00
          0.000e+00
          0.000e+00
          0.000e+00
          0.000e+00
          0.000e+00
          0.000e+00
          0.000e+00
          0.000e+00
          0.000e+00
          0.000e+00
          0.000e+00
          0.000e+00
          0.000e+00
          0.000e+00
          0.000e+00
          0.000e+00
          0.000e+00
          0.000e+00
          0.000e+00
          0.000e+00
          0.000e+00
          0.000e+00
          0.000e+00
          0.000e+00
          0.000e+00
          0.000e+00
          0.000e+00
          0.000e+00
          0.000e+00
          0.000e+00
          0.000e+00
          0.000e+00
          0.000e+00
          0.000e+00
          0.000e+00
          0.000e+00
          0.000e+00
          0.000e+00
          0.000e+00
          0.000e+00
          0.000e+00
          0.000e+00
          0.000e+00
          0.000e+00
          0.000e+00
          0.000e+00
          0.000e+00
          0.000e+00
          0.000e+00
          0.000e+00
          0.000e+00
          0.000e+00
          0.000e+00
          0.000e+00
          0.000e+00
          0.000e+00
          0.000e+00
          0.000e+00
          0.000e+00
          0.000e+00
          0.000e+00
          0.000e+00
          0.000e+00
          0.000e+00
          0.000e+00
          0.000e+00
          0.000e+00
          0.000e+00
          0.000e+00
          0.000e+00
          0.000e+00
          0.000e+00
          0.000e+00
          0.000e+00
          0.000e+00
          0.000e+00
          0.000e+00
          0.000e+00
          0.000e+00
          0.000e+00
          0.000e+00
          0.000e+00
          0.000e+00
          0.000e+00
          0.000e+00
          0.000e+00
          0.000e+00
          0.000e+00
          0.000e+00
          0.000e+00
          0.000e+00
          0.000e+00
          0.000e+00
          0.000e+00
          0.000e+00
          0.000e+00
          0.000e+00
          0.000e+00
          0.000e+00
          0.000e+00
          0.000e+00
          0.000e+00
          0.000e+00
          0.000e+00
          0.000e+00
          0.000e+00
          0.000e+00
          0.000e+00
          0.000e+00
          0.000e+00
          0.000e+00
          0.000e+00
          0.000e+00
          0.000e+00
          0.000e+00
          0.000e+00
          0.000e+00
          0.000e+00
          0.000e+00
          0.000e+00
          0.000e+00
          0.000e+00
          0.000e+00
          0.000e+00
          0.000e+00
          0.000e+00
          0.000e+00
          0.000e+00
          0.000e+00
          0.000e+00
          0.000e+00
          0.000e+00