<?xml version="1.0"?>
<VTKFile type="UnstructuredGrid" version="0.1" byte_order="LittleEndian" compressor="vtkZLibDataCompressor">
  <UnstructuredGrid>
    <Piece NumberOfPoints="2502" NumberOfCells="5000">
      <Points>
        <DataArray type="Float32" NumberOfComponents="3" format="ascii">
          1.023e+02 1.309e+02 1.290e+02
          1.023e+02 1.319e+02 1.289e+02
          1.016e+02 1.328e+02 1.288e+02
          1.019e+02 1.338e+02 1.289e+02
          1.013e+02 1.345e+02 1.290e+02
          1.025e+02 1.271e+02 1.302e+02
          1.023e+02 1.279e+02 1.298e+02
          1.024e+02 1.289e+02 1.294e+02
          1.031e+02 1.284e+02 1.291e+02
          1.023e+02 1.300e+02 1.290e+02
          1.018e+02 1.297e+02 1.298e+02
          1.029e+02 1.296e+02 1.290e+02
          1.032e+02 1.303e+02 1.289e+02
          1.017e+02 1.308e+02 1.295e+02
          1.013e+02 1.319e+02 1.293e+02
          1.031e+02 1.312e+02 1.289e+02
          1.032e+02 1.323e+02 1.291e+02
          1.011e+02 1.327e+02 1.292e+02
          1.025e+02 1.330e+02 1.288e+02
          1.011e+02 1.336e+02 1.291e+02
          1.010e+02 1.349e+02 1.294e+02
          1.025e+02 1.343e+02 1.291e+02
          1.017e+02 1.349e+02 1.290e+02
          1.007e+02 1.359e+02 1.292e+02
          9.995e+01 1.367e+02 1.292e+02
          1.030e+02 1.264e+02 1.308e+02
          1.017e+02 1.273e+02 1.309e+02
          1.033e+02 1.271e+02 1.301e+02
          1.018e+02 1.280e+02 1.303e+02
          1.034e+02 1.277e+02 1.295e+02
          1.017e+02 1.289e+02 1.303e+02
          1.037e+02 1.288e+02 1.295e+02
          1.014e+02 1.304e+02 1.306e+02
          1.035e+02 1.295e+02 1.293e+02
          1.012e+02 1.314e+02 1.302e+02
          1.037e+02 1.308e+02 1.293e+02
          1.038e+02 1.332e+02 1.297e+02
          1.038e+02 1.320e+02 1.295e+02
          1.007e+02 1.326e+02 1.303e+02
          1.032e+02 1.335e+02 1.293e+02
          1.036e+02 1.340e+02 1.298e+02
          1.007e+02 1.340e+02 1.300e+02
          1.007e+02 1.349e+02 1.300e+02
          1.031e+02 1.345e+02 1.295e+02
          1.005e+02 1.354e+02 1.297e+02
          1.025e+02 1.353e+02 1.293e+02
          1.028e+02 1.359e+02 1.297e+02
          1.018e+02 1.361e+02 1.291e+02
          1.008e+02 1.369e+02 1.290e+02
          9.987e+01 1.374e+02 1.291e+02
          1.028e+02 1.257e+02 1.317e+02
          1.021e+02 1.265e+02 1.313e+02
          1.013e+02 1.268e+02 1.318e+02
          1.036e+02 1.267e+02 1.306e+02
          1.010e+02 1.275e+02 1.317e+02
          1.041e+02 1.277e+02 1.302e+02
          1.012e+02 1.284e+02 1.313e+02
          1.042e+02 1.285e+02 1.303e+02
          1.012e+02 1.296e+02 1.313e+02
          1.010e+02 1.305e+02 1.314e+02
          1.042e+02 1.295e+02 1.303e+02
          1.042e+02 1.305e+02 1.302e+02
          1.008e+02 1.314e+02 1.313e+02
          1.043e+02 1.316e+02 1.303e+02
          1.005e+02 1.324e+02 1.316e+02
          1.043e+02 1.329e+02 1.305e+02
          1.005e+02 1.334e+02 1.312e+02
          1.040e+02 1.342e+02 1.306e+02
          1.005e+02 1.344e+02 1.309e+02
          1.034e+02 1.351e+02 1.300e+02
          1.004e+02 1.353e+02 1.306e+02
          1.033e+02 1.359e+02 1.301e+02
          1.027e+02 1.366e+02 1.298e+02
          9.986e+01 1.361e+02 1.300e+02
          1.018e+02 1.369e+02 1.292e+02
          1.022e+02 1.373e+02 1.298e+02
          9.904e+01 1.376e+02 1.306e+02
          1.013e+02 1.375e+02 1.292e+02
          9.912e+01 1.372e+02 1.296e+02
          9.891e+01 1.382e+02 1.302e+02
          9.943e+01 1.382e+02 1.293e+02
          1.006e+02 1.382e+02 1.292e+02
          1.017e+02 1.382e+02 1.297e+02
          9.953e+01 1.391e+02 1.297e+02
          1.002e+02 1.391e+02 1.296e+02
          1.035e+02 1.243e+02 1.341e+02
          1.028e+02 1.250e+02 1.330e+02
          1.031e+02 1.254e+02 1.325e+02
          1.037e+02 1.251e+02 1.334e+02
          1.022e+02 1.253e+02 1.327e+02
          1.039e+02 1.258e+02 1.324e+02
          1.013e+02 1.258e+02 1.328e+02
          1.038e+02 1.261e+02 1.314e+02
          1.008e+02 1.270e+02 1.327e+02
          1.042e+02 1.271e+02 1.314e+02
          1.007e+02 1.280e+02 1.322e+02
          1.044e+02 1.280e+02 1.314e+02
          1.007e+02 1.291e+02 1.320e+02
          1.005e+02 1.287e+02 1.328e+02
          1.044e+02 1.289e+02 1.313e+02
          1.007e+02 1.299e+02 1.320e+02
          1.005e+02 1.295e+02 1.327e+02
          1.044e+02 1.299e+02 1.312e+02
          1.005e+02 1.304e+02 1.325e+02
          1.045e+02 1.309e+02 1.312e+02
          1.004e+02 1.316e+02 1.325e+02
          1.045e+02 1.320e+02 1.314e+02
          1.004e+02 1.340e+02 1.319e+02
          1.044e+02 1.340e+02 1.312e+02
          1.043e+02 1.347e+02 1.312e+02
          1.004e+02 1.348e+02 1.316e+02
          1.040e+02 1.353e+02 1.307e+02
          1.001e+02 1.358e+02 1.315e+02
          1.037e+02 1.363e+02 1.307e+02
          1.042e+02 1.357e+02 1.315e+02
          9.958e+01 1.369e+02 1.309e+02
          9.916e+01 1.375e+02 1.312e+02
          1.032e+02 1.371e+02 1.306e+02
          1.020e+02 1.386e+02 1.302e+02
          1.015e+02 1.389e+02 1.300e+02
          9.910e+01 1.391e+02 1.301e+02
          1.010e+02 1.392e+02 1.299e+02
          1.014e+02 1.393e+02 1.303e+02
          9.967e+01 1.399e+02 1.301e+02
          1.006e+02 1.398e+02 1.301e+02
          1.033e+02 1.237e+02 1.347e+02
          1.029e+02 1.245e+02 1.339e+02
          1.040e+02 1.241e+02 1.346e+02
          1.022e+02 1.247e+02 1.337e+02
          1.015e+02 1.250e+02 1.338e+02
          1.009e+02 1.253e+02 1.342e+02
          1.045e+02 1.257e+02 1.337e+02
          1.045e+02 1.261e+02 1.331e+02
          1.007e+02 1.262e+02 1.337e+02
          1.044e+02 1.266e+02 1.325e+02
          1.047e+02 1.268e+02 1.332e+02
          1.006e+02 1.270e+02 1.336e+02
          1.045e+02 1.275e+02 1.325e+02
          1.048e+02 1.277e+02 1.331e+02
          1.005e+02 1.278e+02 1.333e+02
          1.045e+02 1.283e+02 1.324e+02
          1.048e+02 1.286e+02 1.331e+02
          1.003e+02 1.289e+02 1.334e+02
          1.046e+02 1.292e+02 1.322e+02
          1.049e+02 1.295e+02 1.329e+02
          9.995e+01 1.299e+02 1.336e+02
          1.046e+02 1.301e+02 1.321e+02
          1.050e+02 1.305e+02 1.327e+02
          1.001e+02 1.310e+02 1.333e+02
          9.975e+01 1.308e+02 1.339e+02
          1.047e+02 1.311e+02 1.321e+02
          1.051e+02 1.316e+02 1.327e+02
          1.001e+02 1.320e+02 1.332e+02
          9.980e+01 1.317e+02 1.338e+02
          1.048e+02 1.321e+02 1.323e+02
          1.052e+02 1.325e+02 1.329e+02
          1.004e+02 1.330e+02 1.326e+02
          1.045e+02 1.331e+02 1.317e+02
          1.001e+02 1.345e+02 1.328e+02
          9.995e+01 1.356e+02 1.326e+02
          1.045e+02 1.346e+02 1.321e+02
          9.995e+01 1.364e+02 1.320e+02
          1.043e+02 1.360e+02 1.320e+02
          9.960e+01 1.371e+02 1.319e+02
          9.906e+01 1.377e+02 1.319e+02
          1.039e+02 1.367e+02 1.315e+02
          1.034e+02 1.376e+02 1.312e+02
          9.878e+01 1.380e+02 1.312e+02
          1.027e+02 1.381e+02 1.306e+02
          9.878e+01 1.389e+02 1.309e+02
          9.897e+01 1.400e+02 1.306e+02
          1.022e+02 1.391e+02 1.310e+02
          1.014e+02 1.399e+02 1.307e+02
          1.006e+02 1.406e+02 1.307e+02
          1.035e+02 1.227e+02 1.354e+02
          1.042e+02 1.232e+02 1.352e+02
          1.025e+02 1.237e+02 1.348e+02
          1.047e+02 1.237e+02 1.352e+02
          1.018e+02 1.244e+02 1.346e+02
          1.046e+02 1.248e+02 1.347e+02
          1.006e+02 1.260e+02 1.347e+02
          1.007e+02 1.253e+02 1.354e+02
          1.050e+02 1.264e+02 1.338e+02
          1.005e+02 1.269e+02 1.344e+02
          1.051e+02 1.273e+02 1.338e+02
          1.003e+02 1.281e+02 1.343e+02
          1.051e+02 1.282e+02 1.337e+02
          9.983e+01 1.289e+02 1.342e+02
          9.962e+01 1.295e+02 1.344e+02
          1.052e+02 1.291e+02 1.335e+02
          9.960e+01 1.301e+02 1.343e+02
          1.053e+02 1.302e+02 1.332e+02
          9.954e+01 1.309e+02 1.344e+02
          1.053e+02 1.312e+02 1.332e+02
          9.955e+01 1.319e+02 1.343e+02
          1.053e+02 1.322e+02 1.333e+02
          1.053e+02 1.330e+02 1.334e+02
          9.979e+01 1.330e+02 1.337e+02
          1.050e+02 1.332e+02 1.327e+02
          1.049e+02 1.344e+02 1.328e+02
          9.937e+01 1.353e+02 1.335e+02
          1.045e+02 1.354e+02 1.329e+02
          9.946e+01 1.364e+02 1.329e+02
          1.044e+02 1.366e+02 1.326e+02
          9.911e+01 1.374e+02 1.327e+02
          9.876e+01 1.380e+02 1.327e+02
          1.039e+02 1.377e+02 1.321e+02
          9.871e+01 1.384e+02 1.320e+02
          1.033e+02 1.384e+02 1.318e+02
          1.036e+02 1.385e+02 1.323e+02
          9.866e+01 1.394e+02 1.318e+02
          1.022e+02 1.399e+02 1.317e+02
          9.884e+01 1.407e+02 1.316e+02
          9.953e+01 1.409e+02 1.308e+02
          1.002e+02 1.413e+02 1.314e+02
          1.016e+02 1.405e+02 1.316e+02
          1.010e+02 1.411e+02 1.315e+02
          9.974e+01 1.415e+02 1.321e+02
          1.036e+02 1.221e+02 1.361e+02
          1.045e+02 1.218e+02 1.364e+02
          1.027e+02 1.228e+02 1.357e+02
          1.047e+02 1.225e+02 1.359e+02
          1.053e+02 1.231e+02 1.364e+02
          1.020e+02 1.235e+02 1.357e+02
          1.051e+02 1.239e+02 1.357e+02
          1.012e+02 1.246e+02 1.352e+02
          1.010e+02 1.247e+02 1.363e+02
          1.053e+02 1.249e+02 1.357e+02
          1.055e+02 1.250e+02 1.363e+02
          1.007e+02 1.254e+02 1.362e+02
          1.052e+02 1.258e+02 1.347e+02
          1.005e+02 1.263e+02 1.356e+02
          1.054e+02 1.267e+02 1.348e+02
          1.004e+02 1.274e+02 1.353e+02
          1.055e+02 1.276e+02 1.347e+02
          9.998e+01 1.283e+02 1.351e+02
          1.055e+02 1.286e+02 1.345e+02
          9.947e+01 1.290e+02 1.351e+02
          9.904e+01 1.292e+02 1.357e+02
          1.055e+02 1.295e+02 1.342e+02
          9.930e+01 1.299e+02 1.352e+02
          1.054e+02 1.306e+02 1.340e+02
[...]
      <PointData Scalars="JD_Thresh">
        <DataArray type="Float32" Name="JD_Thresh" NumberOfComponents="1" format="ascii">
          0.000e+00
          0.000e+00
          0.000e+00
          0.000e+00
          0.000e+00
          0.000e+00
          0.000e+00
          0.000e+00
          0.000e+00
          0.000e+00
          0.000e+00
          0.000e+00
          0.000e+00
          0.000e+00
          0.000e+00
          0.000e+00
          0.000e+00
          0.000e+00
          0.000e+00
          0.000e+00
          0.000e+00
          0.000e+00
          0.000e+00
          0.000e+00
          0.000e+00
          0.000e+00
          0.000e+00
          0.000e+00
          0.000e+00
          0.000e+00
          0.000e+00
          0.000e+00
          0.000e+00
          0.000e+00
          0.000e+00
          0.000e+00
          0.000e+00
          0.000e+00
          0.000e+00
          0.000e+00
          0.000e+00
          0.000e+00
          0.000e+00
          0.000e+00
          0.000e+00
          0.000e+00
          0.000e+00
          0.000e+00
          0.000e+00
          0.000e+00
          0.000e+00
          0.000e+00
          0.000e+00
          0.000e+00
          0.000e+00
          0.000e+00
          0.000e+00
          0.000e+00
          0.000e+00
          0.000e+00
          0.000e+00
          0.000e+00
          0.000e+00
          0.000e+00
          0.000e+00
          0.000e+00
          0.000e+00
          0.000e+00
          0.000e+00
          0.000e+00
          0.000e+00
          0.000e+00
          0.000e+00
          0.000e+00
          0.000e+00
          0.000e+00
          0.000e+00
          0.000e+00
          0.000e+00
          0.000e+00
          0.000e+00
          0.000e+00
          0.000e+00
          0.000e+00
          0.000e+00
          0.000e+00
          0.000e+00
          0.000e+00
          0.000e+00
          0.000e+00
          0.000e+00
          0.000e+00
          0.000e+00
          0.000e+00
          0.000e+00
          0.000e+00
          0.000e+00
          0.000e+00
          0.000e+00
          0.000e+00
          0.000e+00
          0.000e+00
          0.000e+00
          0.000e+00
          0.000e+00
          0.000e+00
          0.000e+00
          0.000e+00
          0.000e+00
          0.000e+00
          0.000e+00
          0.000e+00
          0.000e+00
          0.000e+00
          0.000e+00
          0.000e+00
          0.000e+00
          0.000e+00
          0.000e+00
          0.000e+00
          0.000e+00
          0.000e+00
          0.000e+00
          0.000e+00
          0.000e+00
          0.000e+00
          0.000e+00
          0.000e+00
          0.000e+00
          0.000e+00
          0.000e+00
          0.000e+00
          0.000e+00
          0.000e+00
          0.000e+00
          0.000e+00
          0.000e+00
          0.000e+00
          0.000e+00
          0.000e+00
          0.000e+00
          0.000e+00
          0.000e+00
          0.000e+00
          0.000e+00
          0.000e+00
          0.000e+00
          0.000e+00
          0.000e+00
          0.000e+00
          0.000e+00
          0.000e+00
          0.000e+00
          0.000e+00
          0.000e+00
          0.000e+00
          0.000e+00
          0.000e+00
          0.000e+00
          0.000e+00
          0.000e+00
          0.000e+00
          0.000e+00
          0.000e+00
          0.000e+00
          0.000e+00
          0.000e+00
          0.000e+00
          0.000e+00
          0.000e+00
          0.000e+00
          0.000e+00
          0.000e+00
          0.000e+00
          0.000e+00
          0.000e+00
          0.000e+00
          0.000e+00
          0.000e+00
          0.000e+00
          0.000e+00
          0.000e+00
          0.000e+00
          0.000e+00
          0.000e+00
          0.000e+00
          0.000e+00
          0.000e+00
          0.000e+00
          0.000e+00
          0.000e+00
          0.000e+00
          0.000e+00
          0.000e+00
          0.000e+00
          0.000e+00
          0.000e+00
          0.000e+00
          0.000e+00
          0.000e+00
          0.000e+00
          0.000e+00
          0.000e+00
          0.000e+00
          0.000e+00
          0.000e+00
          0.000e+00
          0.000e+00
          0.000e+00
          0.000e+00
          0.000e+00
          0.000e+00
          0.000e+00
          0.000e+00
          0.000e+00
          0.000e+00
          0.000e+00
          0.000e+00
          0.000e+00
          0.000e+00
          0.000e+00
          0.000e+00
          0.000e+00
          0.000e+00
          0.000e+00
          0.000e+00
          0.000e+00
          0.000e+00
          0.000e+00
          0.000e+00
          0.000e+00
          0.000e+00
          0.000e+00
          0.000e+00
          0.000e+00
          0.000e+00
          0.000e+00
          0.000e+00
          0.000e+00
          0.000e+00
          0.000e+00
          0.000e+00
          0.000e+00
          0.000e+00
          0.000e+00
          0.000e+00
          0.000e+00
          0.000e+00
          0.000e+00
          0.000e+00
          0.000e+00
          0.000e+00
          0.000e+00
          0.000e+00
          0.000e+00
          0.000e+00
          0.000e+00
          0.000e+00
          0.000e+00
          0.000e+00
          0.000e+00
          0.000e+00
          0.000e+00
          0.000e+00
          0.000e+00
          0.000e+00
          0.000e+00
          0.000e+00
          0.000e+00
          0.000e+00
          0.000e+00
          0.000e+00
          0.000e+00
          0.000e+00
          0.000e+00
          0.000e+00
          0.000e+00
          0.000e+00
          0.000e+00
          0.000e+00
          0.000e+00
          0.000e+00
          0.000e+00
          0.000e+00
          0.000e+00
          0.000e+00
          0.000e+00
          0.000e+00
          0.000e+00
          0.000e+00
          0.000e+00
          0.000e+00
          0.000e+00
          0.000e+00
          0.000e+00
          0.000e+00
          0.000e+00
          0.000e+00
          0.000e+00
          0.000e+00
          0.000e+00
          0.000e+00
          0.000e+00
          0.000e+00
          0.000e+00
          0.000e+00
          0.000e+00
          0.000e+00
          0.000e+00
          0.000e+00
          0.000e+00
          0.000e+00
          0.000e+00
          0.000e+00
          0.000e+00
          0.000e+00
          0.000e+00
          0.000e+00
          0.000e+00
          0.000e+00
          0.000e+00
          0.000e+00
          0.000e+00
          0.000e+00
          0.000e+00
          0.000e+00
          0.000e+00
          0.000e+00
          0.000e+00
          0.000e+00
          0.000e+00
          0.000e+00
          0.000e+00
          0.000e+00
          0.000e+00
          0.000e+00
          0.000e+00
          0.000e+00
          0.000e+00
          0.000e+00
          0.000e+00
          0.000e+00
          0.000e+00
          0.000e+00
          0.000e+00
          0.000e+00
          0.000e+00
          0.000e+00
          0.000e+00
          0.000e+00
          0.000e+00
          0.000e+00
          0.000e+00
          0.000e+00
          0.000e+00
          0.000e+00
          0.000e+00
          0.000e+00
          0.000e+00
          0.000e+00
          0.000e+00
          0.000e+00
          0.000e+00
          0.000e+00
          0.000e+00
          0.000e+00
          0.000e+00
          0.000e+00
          0.000e+00
          0.000e+00
          0.000e+00
          0.000e+00
          0.000e+00
          0.000e+00
          0.000e+00
          0.000e+00
          0.000e+00
          0.000e+00
          0.000e+00
          0.000e+00
          0.000e+00
          0.000e+00
          0.000e+00
          0.000e+00
          0.000e+00
          0.000e+00
          0.000e+00
          0.000e+00
          0.000e+00
          0.000e+00
          0.000e+00
          0.000e+00
          0.000e+00
          0.000e+00
          0.000e+00
          0.000e+00
          0.000e+00
          0.000e+00
          0.000e+00
          0.000e+00
          0.000e+00
          0.000e+00
          0.000e+00
          0.000e+00
          0.000e+00
          0.000e+00
          0.000e+00
          0.000e+00
          0.000e+00
          0.000e+00
          0.000e+00
          0.000e+00
          0.000e+00
          0.000e+00
          0.000e+00
          0.000e+00
          0.000e+00
          0.000e+00
          0.000e+00
          0.000e+00
          0.000e+00
          0.000e+00
          0.000e+00
          0.000e+00
          0.000e+00
          0.000e+00
          0.000e+00
          0.000e+00
          0.000e+00
          0.000e+00
          0.000e+00
          0.000e+00
          0.000e+00
          0.000e+00
          0.000e+00
          0.000e+00
          0.000e+00
          0.000e+00
          0.000e+00
          0.000e+00
          0.000e+00
          0.000e+00
          0.000e+00
          0.000e+00
          0.000e+00
          0.000e+00
          0.000e+00
          0.000e+00
          0.000e+00
          0.000e+00
          0.000e+00
          0.000e+00
          0.000e+00
          0.000e+00
          0.000e+00
          0.000e+00
          0.000e+00
          0.000e+00
          0.000e+00
          0.000e+00
          0.000e+00
          0.000e+00
          0.000e+00
          0.000e+00
          0.000e+00
          0.000e+00
          0.000e+00
          0.000e+00
          0.000e+00
          0.000e+00
          0.000e+00
          0.000e+00
          0.000e+00
          0.000e+00
          0.000e+00
          0.000e+00
          0.000e+00
          0.000e+00
          0.000e+00
          0.000e+00
          0.000e+00
          0.000e+00
          0.000e+00
          0.000e+00
          0.000e+00
          0.000e+00
          0.000e+00
          0.000e+00
          0.000e+00
          0.000e+00
          0.000e+00
          0.000e+00
          0.000e+00
          0.000e+00
          0.000e+00
          0.000e+00
          0.000e+00
          0.000e+00
          0.000e+00
          0.000e+00
          0.000e+00
          0.000e+00
          0.000e+00
          0.000e+00
          0.000e+00
          0.000e+00
          0.000e+00
          0.000e+00
          0.000e+00
          0.000e+00
          0.000e+00
          0.000e+00
          0.000e+00
          0.000e+00
          0.000e+00
          0.000e+00
          0.000e+00
          0.000e+00
          0.000e+00
          0.000e+00
          0.000e+00
          0.000e+00
          0.000e+00
          0.000e+00
          0.000e+00
          0.000e+00
          0.000e+00
          0.000e+00
          0.000e+00
          0.000e+00
          0.000e+00
          0.000e+00
          0.000e+00
          0.000e+00
          0.000e+00
          0.000e+00
          0.000e+00
          0.000e+00
          0.000e+00
          0.000e+00
          0.000e+00
          0.000e+00
          0.000e+00
          0.000e+00
          0.000e+00
          0.000e+00
          0.000e+00
          0.000e+00
          0.000e+00
          0.000e+00
          0.000e+00
          0.000e+00
          0.000e+00
          0.000e+00
          0.000e+00
          0.000e+00
          0.000e+00
          0.000e+00
          0.000e+00
          0.000e+00
          0.000e+00
          0.000e+00
          0.000e+00
          0.000e+00
          0.000e+00
          0.000e+00
          0.000e+00
          0.000e+00
          0.000e+00
          0.000e+00
          0.000e+00
          0.000e+00
          0.000e+00
          0.000e+00
          0.000e+00
          0.000e+00
          0.000e+00
          0.000e+00
          0.000e+00
          0.000e+00
          0.000e+00
          0.000e+00
          0.000e+00
          0.000e+00
          0.000e+00
          0.000e+00
          0.000e+00
          0.000e+00
          0.000e+00
          0.000e+00
          0.000e+00
          0.000e+00
          0.000e+00
          0.000e+00
          0.000e+00
          0.000e+00
          0.000e+00
          0.000e+00
          0.000e+00
          0.000e+00
          0.000e+00
          0.000e+00
          0.000e+00
          0.000e+00
          0.000e+00
          0.000e+00
          0.000e+00
          0.000e+00
          0.000e+00
          0.000e+00
          0.000e+00
          0.000e+00
          0.000e+00
          0.000e+00
          0.000e+00
          0.000e+00
          0.000e+00
          0.000e+00
          0.000e+00
          0.000e+00
          0.000e+00
          0.000e+00
          0.000e+00
          0.000e+00
          0.000e+00
          0.000e+00
          0.000e+00
          0.000e+00
          0.000e+00
          0.000e+00
          0.000e+00
          0.000e+00
          0.000e+00
          0.000e+00
          0.000e+00
          0.000e+00
          0.000e+00
          0.000e+00
          0.000e+00
          0.000e+00
          0.000e+00
          0.000e+00
          0.000e+00
          0.000e+00
          0.000e+00
          0.000e+00
          0.000e+00
          0.000e+00
          0.000e+00
          0.000e+00
          0.000e+00
          0.000e+00
          0.000e+00
          0.000e+00
          0.000e+00
          0.000e+00
          0.000e+00
          0.000e+00
          0.000e+00
          0.000e+00
          0.000e+00
          0.000e+00
          0.000e+00
          0.000e+00
          0.000e+00
          0.000e+00
          0.000e+00
          0.000e+00
          0.000e+00
          0.000e+00
          0.000e+00
          0.000e+00
          0.000e+00
          0.000e+00
          0.000e+00
          0.000e+00
          0.000e+00
          0.000e+00
          0.000e+00
          0.000e+00
          0.000e+00
          0.000e+00
          0.000e+00
          0.000e+00
          0.000e+00
          0.000e+00
          0.000e+00
          0.000e+00
          0.000e+00
          0.000e+00
          0.000e+00
          0.000e+00
          0.000e+00
          0.000e+00
          0.000e+00
          0.000e+00
          0.000e+00
          0.000e+00
          0.000e+00
          0.000e+00
          0.000e+00
          0.000e+00
          0.000e+00
          0.000e+00
          0.000e+00
          0.000e+00
          0.000e+00
          0.000e+00
          0.000e+00
          0.000e+00
          0.000e+00
          0.000e+00
          0.000e+00
          0.000e+00
          0.000e+00
          0.000e+00
          0.000e+00
          0.000e+00
          0.000e+00
          0.000e+00
          0.000e+00
          0.000e+00
          0.000e+00
          0.000e+00
          0.000e+00
          0.000e+00
          0.000e+00
          0.000e+00
          0.000e+00
          0.000e+00
          0.000e+00
          0.000e+00
          0.000e+00
          0.000e+00
          0.000e+00
          0.000e+00
          0.000e+00
          0.000e+00
          0.000e+00
          0.000e+00
          0.000e+00
          0.000e+00
          0.000e+00
          0.000e+00
          0.000e+00
          0.000e+00
          0.000e+00
          0.000e+00
          0.000e+00
          0.000e+00
          0.000e+00
          0.000e+00
          0.000e+00
          0.000e+00
          0.000e+00
          0.000e+00
          0.000e+00
          0.000e+00
          0.000e+00
          0.000e+00
          0.000e+00
          0.000e+00
          0.000e+00
          0.000e+00
          0.000e+00
          0.000e+00
          0.000e+00
          0.000e+00
          0.000e+00
          0.000e+00
          0.000e+00
          0.000e+00
          0.000e+00
          0.000e+00
          0.000e+00
          0.000e+00
          0.000e+00
          0.000e+00
          0.000e+00
          0.000e+00
          0.000e+00
          0.000e+00
          0.000e+00
          0.000e+00
          0.000e+00
          0.000e+00
          0.000e+00
          0.000e+00
          0.000e+00
          0.000e+00
          0.000e+00
          0.000e+00
          0.000e+00
          0.000e+00
          0.000e+00
          0.000e+00
          0.000e+00
          0.000e+00
          0.000e+00
          0.000e+00
          0.000e+00
          0.000e+00
          0.000e+00
          0.000e+00
          0.000e+00
          0.000e+00
          0.000e+00
          0.000e+00
          0.000e+00
          0.000e+00
          0.000e+00
          0.000e+00
          0.000e+00
          0.000e+00
          0.000e+00
          0.000e+00
          0.000e+00
          0.000e+00
          0.000e+00
          0.000e+00
          0.000e+00
          0.000e+00
          0.000e+00
          0.000e+00
          0.000e+00
          0.000e+00
          0.000e+00
          0.000e+00
          0.000e+00
          0.000e+00
          0.000e+00
          0.000e+00
          0.000e+00
          0.000e+00
          0.000e+00
          0.000e+00
          0.000e+00
          0.000e+00
          0.000e+00
          0.000e+00
          0.000e+00
          0.000e+00
          0.000e+00
          0.000e+00
          0.000e+00
          0.000e+00
          0.000e+00
          0.000e+00
          0.000e+00
          0.000e+00
          0.000e+00
          0.000e+00
          0.000e+00
          0.000e+00
          0.000e+00
          0.000e+00
          0.000e+00
          0.000e+00
          0.000e+00
          0.000e+00
          0.000e+00
          0.000e+00
          0.000e+00
          0.000e+00
          0.000e+00
          0.000e+00
          0.000e+00
          0.000e+00
          0.000e+00
          0.000e+00
          0.000e+00
          0.000e+00
          0.000e+00
          0.000e+00
          0.000e+00
          0.000e+00
          0.000e+00
          0.000e+00
          0.000e+00
          0.000e+00
          0.000e+00
          0.000e+00
          0.000e+00
          0.000e+00
          0.000e+00
          0.000e+00
          0.000e+00
          0.000e+00
          0.000e+00
          0.000e+00
          0.000e+00
          0.000e+00
          0.000e+00
          0.000e+00
          0.000e+00
          0.000e+00
          0.000e+00
          0.000e+00
          0.000e+00
          0.000e+00
          0.000e+00
          0.000e+00
          0.000e+00
          0.000e+00
          0.000e+00
          0.000e+00
          0.000e+00
          0.000e+00
          0.000e+00
          0.000e+00
          0.000e+00
          0.000e+00
          0.000e+00
          0.000e+00
          0.000e+00
          0.000e+00
          0.000e+00
          0.000e+00
          0.000e+00
          0.000e+00
          0.000e+00
          0.000e+00
          0.000e+00
          0.000e+00
          0.000e+00
          0.000e+00
          0.000e+00
          0.000e+00
          0.000e+00
          0.000e+00
          0.000e+00
          0.000e+00
          0.000e+00
          0.000e+00
          0.000e+00
          0.000e+00
          0.000e+00
          0.000e+00
          0.000e+00
          0.000e+00
          0.000e+00
          0.000e+00
          0.000e+00
          0.000e+00
          0.000e+00
          0.000e+00
          0.000e+00
          0.000e+00
          0.000e+00
          0.000e+00
          0.000e+00
          0.000e+00
          0.000e+00
          0.000e+00
          0.000e+00
          0.000e+00
          0.000e+00
          0.000e+00
          0.000e+00
          0.000e+00
          0.000e+00
          0.000e+00
          0.000e+00
          0.000e+00
          0.000e+00
          0.000e+00
          0.000e+00
          0.000e+00
          0.000e+00
          0.000e+00
          0.000e+00
          0.000e+00
          0.000e+00
          0.000e+00
          0.000e+00
          0.000e+00
          0.000e+00
          0.000e+00
          0.000e+00
          0.000e+00
          0.000e+00
          0.000e+00
          0.000e+00
          0.000e+00
          0.000e+00
          0.000e+00
          0.000e+00
          0.000e+00
          0.000e+00
          0.000e+00
          0.000e+00
          0.000e+00
          0.000e+00