<?xml version="1.0"?>
<VTKFile type="UnstructuredGrid" version="0.1" byte_order="LittleEndian" compressor="vtkZLibDataCompressor">
  <UnstructuredGrid>
    <Piece NumberOfPoints="1254" NumberOfCells="2504">
      <Points>
        <DataArray type="Float32" NumberOfComponents="3" format="ascii">
          1.057e+02 1.334e+02 1.342e+02
          1.060e+02 1.329e+02 1.342e+02
          1.060e+02 1.336e+02 1.339e+02
          1.056e+02 1.334e+02 1.344e+02
          1.058e+02 1.325e+02 1.346e+02
          1.058e+02 1.320e+02 1.351e+02
          1.056e+02 1.338e+02 1.341e+02
          1.058e+02 1.339e+02 1.339e+02
          1.063e+02 1.327e+02 1.342e+02
          1.069e+02 1.330e+02 1.340e+02
          1.059e+02 1.342e+02 1.335e+02
          1.057e+02 1.345e+02 1.334e+02
          1.063e+02 1.333e+02 1.338e+02
          1.062e+02 1.340e+02 1.336e+02
          1.066e+02 1.338e+02 1.337e+02
          1.074e+02 1.337e+02 1.338e+02
          1.051e+02 1.350e+02 1.329e+02
          1.062e+02 1.348e+02 1.331e+02
          1.069e+02 1.346e+02 1.334e+02
          1.056e+02 1.355e+02 1.326e+02
          1.066e+02 1.355e+02 1.328e+02
          1.067e+02 1.308e+02 1.362e+02
          1.063e+02 1.309e+02 1.358e+02
          1.069e+02 1.309e+02 1.355e+02
          1.058e+02 1.316e+02 1.354e+02
          1.060e+02 1.313e+02 1.354e+02
          1.066e+02 1.312e+02 1.350e+02
          1.057e+02 1.322e+02 1.353e+02
          1.055e+02 1.331e+02 1.350e+02
          1.060e+02 1.319e+02 1.349e+02
          1.067e+02 1.322e+02 1.345e+02
          1.065e+02 1.317e+02 1.348e+02
          1.055e+02 1.337e+02 1.345e+02
          1.074e+02 1.327e+02 1.342e+02
          1.075e+02 1.333e+02 1.339e+02
          1.077e+02 1.328e+02 1.341e+02
          1.053e+02 1.345e+02 1.338e+02
          1.078e+02 1.335e+02 1.339e+02
          1.077e+02 1.341e+02 1.338e+02
          1.047e+02 1.352e+02 1.334e+02
          1.050e+02 1.356e+02 1.328e+02
          1.074e+02 1.345e+02 1.337e+02
          1.076e+02 1.349e+02 1.337e+02
          1.052e+02 1.359e+02 1.325e+02
          1.048e+02 1.359e+02 1.328e+02
          1.059e+02 1.358e+02 1.323e+02
          1.071e+02 1.353e+02 1.333e+02
          1.067e+02 1.357e+02 1.328e+02
          1.073e+02 1.359e+02 1.332e+02
          1.047e+02 1.366e+02 1.328e+02
          1.053e+02 1.364e+02 1.322e+02
          1.064e+02 1.363e+02 1.323e+02
          1.069e+02 1.367e+02 1.329e+02
          1.047e+02 1.373e+02 1.328e+02
          1.051e+02 1.373e+02 1.323e+02
          1.060e+02 1.371e+02 1.321e+02
          1.067e+02 1.306e+02 1.367e+02
          1.068e+02 1.302e+02 1.371e+02
          1.073e+02 1.299e+02 1.373e+02
          1.077e+02 1.299e+02 1.375e+02
          1.066e+02 1.308e+02 1.365e+02
          1.069e+02 1.307e+02 1.363e+02
          1.071e+02 1.308e+02 1.360e+02
          1.073e+02 1.306e+02 1.365e+02
          1.079e+02 1.306e+02 1.369e+02
          1.061e+02 1.310e+02 1.361e+02
          1.073e+02 1.309e+02 1.358e+02
          1.080e+02 1.309e+02 1.359e+02
          1.058e+02 1.316e+02 1.359e+02
          1.074e+02 1.311e+02 1.352e+02
          1.081e+02 1.314e+02 1.353e+02
          1.055e+02 1.325e+02 1.359e+02
          1.054e+02 1.334e+02 1.357e+02
          1.073e+02 1.316e+02 1.348e+02
          1.077e+02 1.323e+02 1.345e+02
          1.080e+02 1.319e+02 1.349e+02
          1.053e+02 1.339e+02 1.349e+02
          1.081e+02 1.326e+02 1.345e+02
          1.050e+02 1.346e+02 1.344e+02
          1.083e+02 1.334e+02 1.345e+02
          1.046e+02 1.352e+02 1.343e+02
          1.082e+02 1.343e+02 1.341e+02
          1.045e+02 1.360e+02 1.337e+02
          1.080e+02 1.355e+02 1.338e+02
          1.045e+02 1.369e+02 1.334e+02
          1.077e+02 1.364e+02 1.335e+02
          1.071e+02 1.370e+02 1.331e+02
          1.047e+02 1.377e+02 1.332e+02
          1.049e+02 1.378e+02 1.328e+02
          1.055e+02 1.379e+02 1.325e+02
          1.068e+02 1.373e+02 1.329e+02
          1.062e+02 1.376e+02 1.325e+02
          1.071e+02 1.373e+02 1.332e+02
          1.055e+02 1.386e+02 1.328e+02
          1.062e+02 1.383e+02 1.328e+02
          1.067e+02 1.301e+02 1.379e+02
          1.070e+02 1.298e+02 1.376e+02
          1.075e+02 1.295e+02 1.382e+02
          1.075e+02 1.289e+02 1.388e+02
          1.067e+02 1.303e+02 1.374e+02
          1.079e+02 1.298e+02 1.379e+02
          1.083e+02 1.299e+02 1.382e+02
          1.063e+02 1.307e+02 1.372e+02
          1.081e+02 1.304e+02 1.374e+02
          1.086e+02 1.306e+02 1.376e+02
          1.058e+02 1.312e+02 1.369e+02
          1.085e+02 1.308e+02 1.367e+02
          1.090e+02 1.311e+02 1.368e+02
          1.056e+02 1.320e+02 1.367e+02
          1.087e+02 1.314e+02 1.360e+02
          1.092e+02 1.318e+02 1.364e+02
          1.055e+02 1.329e+02 1.365e+02
          1.053e+02 1.336e+02 1.363e+02
          1.085e+02 1.319e+02 1.353e+02
          1.052e+02 1.340e+02 1.355e+02
          1.087e+02 1.327e+02 1.352e+02
          1.048e+02 1.347e+02 1.353e+02
          1.086e+02 1.337e+02 1.350e+02
          1.045e+02 1.355e+02 1.350e+02
          1.085e+02 1.348e+02 1.346e+02
          1.044e+02 1.363e+02 1.347e+02
          1.084e+02 1.359e+02 1.343e+02
          1.045e+02 1.371e+02 1.343e+02
          1.083e+02 1.367e+02 1.341e+02
          1.047e+02 1.380e+02 1.339e+02
          1.049e+02 1.385e+02 1.331e+02
          1.077e+02 1.373e+02 1.337e+02
          1.071e+02 1.378e+02 1.335e+02
          1.052e+02 1.390e+02 1.331e+02
          1.060e+02 1.389e+02 1.330e+02
          1.068e+02 1.379e+02 1.333e+02
          1.066e+02 1.384e+02 1.335e+02
          1.071e+02 1.381e+02 1.337e+02
          1.074e+02 1.286e+02 1.391e+02
          1.067e+02 1.299e+02 1.388e+02
          1.073e+02 1.290e+02 1.388e+02
          1.069e+02 1.294e+02 1.387e+02
          1.078e+02 1.286e+02 1.390e+02
          1.082e+02 1.294e+02 1.385e+02
          1.066e+02 1.303e+02 1.383e+02
          1.085e+02 1.295e+02 1.387e+02
          1.063e+02 1.309e+02 1.381e+02
          1.087e+02 1.301e+02 1.382e+02
          1.058e+02 1.316e+02 1.377e+02
          1.091e+02 1.309e+02 1.376e+02
          1.056e+02 1.323e+02 1.375e+02
          1.093e+02 1.319e+02 1.370e+02
          1.093e+02 1.323e+02 1.365e+02
          1.054e+02 1.331e+02 1.372e+02
          1.053e+02 1.338e+02 1.370e+02
          1.092e+02 1.323e+02 1.360e+02
          1.094e+02 1.328e+02 1.366e+02
          1.095e+02 1.330e+02 1.373e+02
          1.051e+02 1.342e+02 1.362e+02
          1.091e+02 1.332e+02 1.358e+02
          1.093e+02 1.337e+02 1.360e+02
          1.095e+02 1.337e+02 1.368e+02
          1.047e+02 1.349e+02 1.361e+02
          1.090e+02 1.341e+02 1.354e+02
          1.093e+02 1.346e+02 1.360e+02
          1.046e+02 1.357e+02 1.359e+02
          1.089e+02 1.351e+02 1.352e+02
          1.092e+02 1.356e+02 1.357e+02
          1.045e+02 1.366e+02 1.355e+02
          1.088e+02 1.362e+02 1.350e+02
          1.091e+02 1.364e+02 1.355e+02
          1.046e+02 1.374e+02 1.351e+02
          1.047e+02 1.379e+02 1.352e+02
          1.084e+02 1.372e+02 1.345e+02
          1.048e+02 1.381e+02 1.345e+02
          1.051e+02 1.386e+02 1.341e+02
          1.050e+02 1.383e+02 1.346e+02
          1.082e+02 1.378e+02 1.346e+02
          1.055e+02 1.390e+02 1.338e+02
          1.058e+02 1.391e+02 1.336e+02
          1.062e+02 1.392e+02 1.341e+02
          1.065e+02 1.389e+02 1.339e+02
          1.070e+02 1.389e+02 1.345e+02
          1.076e+02 1.382e+02 1.342e+02
          1.072e+02 1.385e+02 1.342e+02
          1.077e+02 1.385e+02 1.346e+02
          1.074e+02 1.280e+02 1.397e+02
          1.067e+02 1.298e+02 1.396e+02
          1.071e+02 1.283e+02 1.396e+02
          1.068e+02 1.291e+02 1.396e+02
          1.079e+02 1.280e+02 1.396e+02
          1.085e+02 1.289e+02 1.393e+02
          1.065e+02 1.303e+02 1.391e+02
          1.065e+02 1.302e+02 1.396e+02
          1.090e+02 1.294e+02 1.393e+02
          1.062e+02 1.311e+02 1.386e+02
          1.092e+02 1.302e+02 1.387e+02
          1.058e+02 1.317e+02 1.386e+02
          1.094e+02 1.310e+02 1.381e+02
          1.056e+02 1.325e+02 1.383e+02
          1.095e+02 1.317e+02 1.380e+02
          1.096e+02 1.325e+02 1.377e+02
          1.054e+02 1.332e+02 1.380e+02
          1.054e+02 1.338e+02 1.377e+02
          1.054e+02 1.334e+02 1.384e+02
          1.096e+02 1.328e+02 1.378e+02
          1.099e+02 1.331e+02 1.384e+02
          1.051e+02 1.343e+02 1.371e+02
          1.096e+02 1.335e+02 1.375e+02
          1.096e+02 1.341e+02 1.372e+02
          1.098e+02 1.339e+02 1.381e+02
          1.047e+02 1.351e+02 1.370e+02
          1.095e+02 1.345e+02 1.366e+02
          1.096e+02 1.349e+02 1.372e+02
          1.099e+02 1.347e+02 1.381e+02
          1.047e+02 1.359e+02 1.368e+02
          1.094e+02 1.353e+02 1.362e+02
          1.096e+02 1.359e+02 1.368e+02
          1.099e+02 1.355e+02 1.378e+02
          1.047e+02 1.368e+02 1.363e+02
          1.047e+02 1.374e+02 1.358e+02
          1.093e+02 1.362e+02 1.359e+02
          1.091e+02 1.368e+02 1.356e+02
          1.094e+02 1.368e+02 1.362e+02
          1.098e+02 1.365e+02 1.374e+02
          1.048e+02 1.379e+02 1.359e+02
          1.088e+02 1.373e+02 1.352e+02
          1.089e+02 1.375e+02 1.354e+02
          1.094e+02 1.377e+02 1.362e+02
          1.052e+02 1.386e+02 1.353e+02
          1.057e+02 1.390e+02 1.345e+02
          1.068e+02 1.392e+02 1.349e+02
          1.083e+02 1.384e+02 1.350e+02
          1.080e+02 1.390e+02 1.351e+02
          1.088e+02 1.385e+02 1.355e+02
          1.075e+02 1.275e+02 1.401e+02
          1.070e+02 1.279e+02 1.402e+02
          1.068e+02 1.289e+02 1.404e+02
          1.080e+02 1.275e+02 1.399e+02
          1.087e+02 1.285e+02 1.400e+02
          1.085e+02 1.277e+02 1.402e+02
          1.066e+02 1.298e+02 1.401e+02
          1.064e+02 1.305e+02 1.401e+02
          1.095e+02 1.294e+02 1.398e+02
          1.101e+02 1.296e+02 1.399e+02
          1.063e+02 1.310e+02 1.395e+02
          1.097e+02 1.302e+02 1.392e+02
[...]
      <PointData Scalars="JD_Thresh">
        <DataArray type="Float32" Name="JD_Thresh" NumberOfComponents="1" format="ascii">
          0.000e+00
          0.000e+00
          0.000e+00
          0.000e+00
          0.000e+00
          0.000e+00
          0.000e+00
          0.000e+00
          0.000e+00
          0.000e+00
          0.000e+00
          0.000e+00
          0.000e+00
          0.000e+00
          0.000e+00
          0.000e+00
          0.000e+00
          0.000e+00
          0.000e+00
          0.000e+00
          0.000e+00
          0.000e+00
          0.000e+00
          0.000e+00
          0.000e+00
          0.000e+00
          0.000e+00
          0.000e+00
          0.000e+00
          0.000e+00
          0.000e+00
          0.000e+00
          0.000e+00
          0.000e+00
          0.000e+00
          0.000e+00
          0.000e+00
          0.000e+00
          0.000e+00
          0.000e+00
          0.000e+00
          0.000e+00
          0.000e+00
          0.000e+00
          0.000e+00
          0.000e+00
          0.000e+00
          0.000e+00
          0.000e+00
          0.000e+00
          0.000e+00
          0.000e+00
          0.000e+00
          0.000e+00
          0.000e+00
          0.000e+00
          0.000e+00
          0.000e+00
          0.000e+00
          0.000e+00
          0.000e+00
          0.000e+00
          0.000e+00
          0.000e+00
          0.000e+00
          0.000e+00
          0.000e+00
          0.000e+00
          0.000e+00
          0.000e+00
          0.000e+00
          0.000e+00
          0.000e+00
          0.000e+00
          0.000e+00
          0.000e+00
          0.000e+00
          0.000e+00
          0.000e+00
          0.000e+00
          0.000e+00
          0.000e+00
          0.000e+00
          0.000e+00
          0.000e+00
          0.000e+00
          0.000e+00
          0.000e+00
          0.000e+00
          0.000e+00
          0.000e+00
          0.000e+00
          0.000e+00
          0.000e+00
          0.000e+00
          0.000e+00
          0.000e+00
          0.000e+00
          0.000e+00
          0.000e+00
          0.000e+00
          0.000e+00
          0.000e+00
          0.000e+00
          0.000e+00
          0.000e+00
          0.000e+00
          0.000e+00
          0.000e+00
          0.000e+00
          0.000e+00
          0.000e+00
          0.000e+00
          0.000e+00
          0.000e+00
          0.000e+00
          0.000e+00
          0.000e+00
          0.000e+00
          0.000e+00
          0.000e+00
          0.000e+00
          0.000e+00
          0.000e+00
          0.000e+00
          0.000e+00
          0.000e+00
          0.000e+00
          0.000e+00
          0.000e+00
          0.000e+00
          0.000e+00
          0.000e+00
          0.000e+00
          0.000e+00
          0.000e+00
          0.000e+00
          0.000e+00
          0.000e+00
          0.000e+00
          0.000e+00
          0.000e+00
          0.000e+00
          0.000e+00
          0.000e+00
          0.000e+00
          0.000e+00
          0.000e+00
          0.000e+00
          0.000e+00
          0.000e+00
          0.000e+00
          0.000e+00
          0.000e+00
          0.000e+00
          0.000e+00
          0.000e+00
          0.000e+00
          0.000e+00
          0.000e+00
          0.000e+00
          0.000e+00
          0.000e+00
          0.000e+00
          0.000e+00
          0.000e+00
          0.000e+00
          0.000e+00
          0.000e+00
          0.000e+00
          0.000e+00
          0.000e+00
          0.000e+00
          0.000e+00
          0.000e+00
          0.000e+00
          0.000e+00
          0.000e+00
          0.000e+00
          0.000e+00
          0.000e+00
          0.000e+00
          0.000e+00
          0.000e+00
          0.000e+00
          0.000e+00
          0.000e+00
          0.000e+00
          0.000e+00
          0.000e+00
          0.000e+00
          0.000e+00
          0.000e+00
          0.000e+00
          0.000e+00
          0.000e+00
          0.000e+00
          0.000e+00
          0.000e+00
          0.000e+00
          0.000e+00
          0.000e+00
          0.000e+00
          0.000e+00
          0.000e+00
          0.000e+00
          0.000e+00
          0.000e+00
          0.000e+00
          0.000e+00
          0.000e+00
          0.000e+00
          0.000e+00
          0.000e+00
          0.000e+00
          0.000e+00
          0.000e+00
          0.000e+00
          0.000e+00
          0.000e+00
          0.000e+00
          0.000e+00
          0.000e+00
          0.000e+00
          0.000e+00
          0.000e+00
          0.000e+00
          0.000e+00
          0.000e+00
          0.000e+00
          0.000e+00
          0.000e+00
          0.000e+00
          0.000e+00
          0.000e+00
          0.000e+00
          0.000e+00
          0.000e+00
          0.000e+00
          0.000e+00
          0.000e+00
          0.000e+00
          0.000e+00
          0.000e+00
          0.000e+00
          0.000e+00
          0.000e+00
          0.000e+00
          0.000e+00
          0.000e+00
          0.000e+00
          0.000e+00
          0.000e+00
          0.000e+00
          0.000e+00
          0.000e+00
          0.000e+00
          0.000e+00
          0.000e+00
          0.000e+00
          0.000e+00
          0.000e+00
          0.000e+00
          0.000e+00
          0.000e+00
          0.000e+00
          0.000e+00
          0.000e+00
          0.000e+00
          0.000e+00
          0.000e+00
          0.000e+00
          0.000e+00
          0.000e+00
          0.000e+00
          0.000e+00
          0.000e+00
          0.000e+00
          0.000e+00
          0.000e+00
          0.000e+00
          0.000e+00
          0.000e+00
          0.000e+00
          0.000e+00
          0.000e+00
          0.000e+00
          0.000e+00
          0.000e+00
          0.000e+00
          0.000e+00
          0.000e+00
          0.000e+00
          0.000e+00
          0.000e+00
          0.000e+00
          0.000e+00
          0.000e+00
          0.000e+00
          0.000e+00
          0.000e+00
          0.000e+00
          0.000e+00
          0.000e+00
          0.000e+00
          0.000e+00
          0.000e+00
          0.000e+00
          0.000e+00
          0.000e+00
          0.000e+00
          0.000e+00
          0.000e+00
          0.000e+00
          0.000e+00
          0.000e+00
          0.000e+00
          0.000e+00
          0.000e+00
          0.000e+00
          0.000e+00
          0.000e+00
          0.000e+00
          0.000e+00
          0.000e+00
          0.000e+00
          0.000e+00
          0.000e+00
          0.000e+00
          0.000e+00
          0.000e+00
          0.000e+00
          0.000e+00
          0.000e+00
          0.000e+00
          0.000e+00
          0.000e+00
          0.000e+00
          0.000e+00
          0.000e+00
          0.000e+00
          0.000e+00
          0.000e+00
          0.000e+00
          0.000e+00
          0.000e+00
          0.000e+00
          0.000e+00
          0.000e+00
          0.000e+00
          0.000e+00
          0.000e+00
          0.000e+00
          0.000e+00
          0.000e+00
          0.000e+00
          0.000e+00
          0.000e+00
          0.000e+00
          0.000e+00
          0.000e+00
          0.000e+00
          0.000e+00
          0.000e+00
          0.000e+00
          0.000e+00
          0.000e+00
          0.000e+00
          0.000e+00
          0.000e+00
          0.000e+00
          0.000e+00
          0.000e+00
          0.000e+00
          0.000e+00
          0.000e+00
          0.000e+00
          0.000e+00
          0.000e+00
          0.000e+00
          0.000e+00
          0.000e+00
          0.000e+00
          0.000e+00
          0.000e+00
          0.000e+00
          0.000e+00
          0.000e+00
          0.000e+00
          0.000e+00
          0.000e+00
          0.000e+00
          0.000e+00
          0.000e+00
          0.000e+00
          0.000e+00
          0.000e+00
          0.000e+00
          0.000e+00
          0.000e+00
          0.000e+00
          0.000e+00
          0.000e+00
          0.000e+00
          0.000e+00
          0.000e+00
          0.000e+00
          0.000e+00
          0.000e+00
          0.000e+00
          0.000e+00
          0.000e+00
          0.000e+00
          0.000e+00
          0.000e+00
          0.000e+00
          0.000e+00
          0.000e+00
          0.000e+00
          0.000e+00
          0.000e+00
          0.000e+00
          0.000e+00
          0.000e+00
          0.000e+00
          0.000e+00
          0.000e+00
          0.000e+00
          0.000e+00
          0.000e+00
          0.000e+00
          0.000e+00
          0.000e+00
          0.000e+00
          0.000e+00
          0.000e+00
          0.000e+00
          0.000e+00
          0.000e+00
          0.000e+00
          0.000e+00
          0.000e+00
          0.000e+00
          0.000e+00
          0.000e+00
          0.000e+00
          0.000e+00
          0.000e+00
          0.000e+00
          0.000e+00
          0.000e+00
          0.000e+00
          0.000e+00
          0.000e+00
          0.000e+00
          0.000e+00
          0.000e+00
          0.000e+00
          0.000e+00
          0.000e+00
          0.000e+00
          0.000e+00
          0.000e+00
          0.000e+00
          0.000e+00
          0.000e+00
          0.000e+00
          0.000e+00
          0.000e+00
          0.000e+00
          0.000e+00
          0.000e+00
          0.000e+00
          0.000e+00
          0.000e+00
          0.000e+00
          0.000e+00
          0.000e+00
          0.000e+00
          0.000e+00
          0.000e+00
          0.000e+00
          0.000e+00
          0.000e+00
          0.000e+00
          0.000e+00
          0.000e+00
          0.000e+00
          0.000e+00
          0.000e+00
          0.000e+00
          0.000e+00
          0.000e+00
          0.000e+00
          0.000e+00
          0.000e+00
          0.000e+00
          0.000e+00
          0.000e+00
          0.000e+00
          0.000e+00
          0.000e+00
          0.000e+00
          0.000e+00
          0.000e+00
          0.000e+00
          0.000e+00
          0.000e+00
          0.000e+00
          0.000e+00
          0.000e+00
          0.000e+00
          0.000e+00
          0.000e+00
          0.000e+00
          0.000e+00
          0.000e+00
          0.000e+00
          0.000e+00
          0.000e+00
          0.000e+00
          0.000e+00
          0.000e+00
          0.000e+00
          0.000e+00
          0.000e+00
          0.000e+00
          0.000e+00
          0.000e+00
          0.000e+00
          0.000e+00
          0.000e+00
          0.000e+00
          0.000e+00
          0.000e+00
          0.000e+00
          0.000e+00
          0.000e+00
          0.000e+00
          0.000e+00
          0.000e+00
          0.000e+00
          0.000e+00
          0.000e+00
          0.000e+00
          0.000e+00
          0.000e+00
          0.000e+00
          0.000e+00
          0.000e+00
          0.000e+00
          0.000e+00
          0.000e+00
          0.000e+00
          0.000e+00
          0.000e+00
          0.000e+00
          0.000e+00
          0.000e+00
          0.000e+00
          0.000e+00
          0.000e+00
          0.000e+00
          0.000e+00
          0.000e+00
          0.000e+00
          0.000e+00
          0.000e+00
          0.000e+00
          0.000e+00
          0.000e+00
          0.000e+00
          0.000e+00
          0.000e+00
          0.000e+00
          0.000e+00
          0.000e+00
          0.000e+00
          0.000e+00
          0.000e+00
          0.000e+00
          0.000e+00
          0.000e+00
          0.000e+00
          0.000e+00
          0.000e+00
          0.000e+00
          0.000e+00
          0.000e+00
          0.000e+00
          0.000e+00
          0.000e+00
          0.000e+00
          0.000e+00
          0.000e+00
          0.000e+00
          0.000e+00
          0.000e+00
          0.000e+00
          0.000e+00
          0.000e+00
          0.000e+00
          0.000e+00
          0.000e+00
          0.000e+00
          0.000e+00
          0.000e+00
          0.000e+00
          0.000e+00
          0.000e+00
          0.000e+00
          0.000e+00
          0.000e+00
          0.000e+00
          0.000e+00
          0.000e+00
          0.000e+00
          0.000e+00
          0.000e+00
          0.000e+00
          0.000e+00
          0.000e+00
          0.000e+00
          0.000e+00
          0.000e+00
          0.000e+00
          0.000e+00
          0.000e+00
          0.000e+00
          0.000e+00
          0.000e+00
          0.000e+00
          0.000e+00
          0.000e+00
          0.000e+00
          0.000e+00
          0.000e+00
          0.000e+00
          0.000e+00
          0.000e+00
          0.000e+00
          0.000e+00
          0.000e+00
          0.000e+00
          0.000e+00
          0.000e+00
          0.000e+00
          0.000e+00
          0.000e+00
          0.000e+00
          0.000e+00
          0.000e+00
          0.000e+00
          0.000e+00
          0.000e+00
          0.000e+00
          0.000e+00
          0.000e+00
          0.000e+00
          0.000e+00
          0.000e+00
          0.000e+00
          0.000e+00
          0.000e+00
          0.000e+00
          0.000e+00
          0.000e+00
          0.000e+00
          0.000e+00
          0.000e+00
          0.000e+00
          0.000e+00
          0.000e+00
          0.000e+00
          0.000e+00
          0.000e+00
          0.000e+00
          0.000e+00
          0.000e+00
          0.000e+00
          0.000e+00
          0.000e+00
          0.000e+00
          0.000e+00
          0.000e+00
          0.000e+00
          0.000e+00
          0.000e+00
          0.000e+00
          0.000e+00
          0.000e+00
          0.000e+00
          0.000e+00
          0.000e+00
          0.000e+00
          0.000e+00
          0.000e+00
          0.000e+00
          0.000e+00
          0.000e+00
          0.000e+00
          0.000e+00
          0.000e+00
          0.000e+00
          0.000e+00
          0.000e+00
          0.000e+00
          0.000e+00
          0.000e+00
          0.000e+00
          0.000e+00
          0.000e+00
          0.000e+00
          0.000e+00
          0.000e+00
          0.000e+00
          0.000e+00
          0.000e+00
          0.000e+00
          0.000e+00
          0.000e+00
          0.000e+00
          0.000e+00
          0.000e+00
          0.000e+00
          0.000e+00
          0.000e+00
          0.000e+00
          0.000e+00
          0.000e+00
          0.000e+00
          0.000e+00
          0.000e+00
          0.000e+00
          0.000e+00
          0.000e+00
          0.000e+00
          0.000e+00
          0.000e+00
          0.000e+00
          0.000e+00
          0.000e+00
          0.000e+00
          0.000e+00
          0.000e+00
          0.000e+00
          0.000e+00
          0.000e+00
          0.000e+00
          0.000e+00
          0.000e+00
          0.000e+00
          0.000e+00
          0.000e+00
          0.000e+00
          0.000e+00
          0.000e+00
          0.000e+00
          0.000e+00
          0.000e+00
          0.000e+00
          0.000e+00
          0.000e+00
          0.000e+00
          0.000e+00
          0.000e+00
          0.000e+00
          0.000e+00
          0.000e+00
          0.000e+00
          0.000e+00
          0.000e+00
          0.000e+00
          0.000e+00
          0.000e+00
          0.000e+00
          0.000e+00
          0.000e+00
          0.000e+00
          0.000e+00
          0.000e+00
          0.000e+00
          0.000e+00
          0.000e+00
          0.000e+00
          0.000e+00
          0.000e+00
          0.000e+00
          0.000e+00
          0.000e+00
          0.000e+00
          0.000e+00
          0.000e+00
          0.000e+00
          0.000e+00
          0.000e+00
          0.000e+00
          0.000e+00
          0.000e+00
          0.000e+00
          0.000e+00
          0.000e+00
          0.000e+00
          0.000e+00
          0.000e+00
          0.000e+00
          0.000e+00
          0.000e+00
          0.000e+00
          0.000e+00
          0.000e+00
          0.000e+00
          0.000e+00
          0.000e+00
          0.000e+00
          0.000e+00
          0.000e+00
          0.000e+00
          0.000e+00
          0.000e+00
          0.000e+00
          0.000e+00
          0.000e+00
          0.000e+00
          0.000e+00
          0.000e+00
          0.000e+00
          0.000e+00
          0.000e+00
          0.000e+00
          0.000e+00
          0.000e+00
          0.000e+00
          0.000e+00
          0.000e+00
          0.000e+00
          0.000e+00
          0.000e+00
          0.000e+00
          0.000e+00
          0.000e+00
          0.000e+00
          0.000e+00
          0.000e+00
          0.000e+00
          0.000e+00
          0.000e+00
          0.000e+00
          0.000e+00
          0.000e+00
          0.000e+00
          0.000e+00
          0.000e+00
          0.000e+00
          0.000e+00
          0.000e+00
          0.000e+00
          0.000e+00
          0.000e+00
          0.000e+00
          0.000e+00
          0.000e+00
          0.000e+00
          0.000e+00
          0.000e+00
          0.000e+00
          0.000e+00
          0.000e+00
          0.000e+00
          0.000e+00
          0.000e+00
          0.000e+00
          0.000e+00
          0.000e+00
          0.000e+00
          0.000e+00
          0.000e+00
          0.000e+00
          0.000e+00
          0.000e+00
          0.000e+00
          0.000e+00
          0.000e+00
          0.000e+00
          0.000e+00
          0.000e+00
          0.000e+00
          0.000e+00
          0.000e+00
          0.000e+00
          0.000e+00
          0.000e+00
          0.000e+00
          0.000e+00
          0.000e+00
          0.000e+00
          0.000e+00
          0.000e+00
          0.000e+00
          0.000e+00
          0.000e+00
          0.000e+00
          0.000e+00
          0.000e+00
          0.000e+00
          0.000e+00
          0.000e+00
          0.000e+00
          0.000e+00
          0.000e+00
          0.000e+00
          0.000e+00
          0.000e+00
          0.000e+00
          0.000e+00
          0.000e+00
          0.000e+00
          0.000e+00
          0.000e+00
          0.000e+00
          0.000e+00
          0.000e+00
          0.000e+00
          0.000e+00
          0.000e+00
          0.000e+00
          0.000e+00
          0.000e+00
          0.000e+00
          0.000e+00
          0.000e+00
          0.000e+00
          0.000e+00
          0.000e+00
          0.000e+00
          0.000e+00
          0.000e+00
          0.000e+00
          0.000e+00
          0.000e+00
          0.000e+00
          0.000e+00
          0.000e+00
          0.000e+00
          0.000e+00
          0.000e+00
          0.000e+00
          0.000e+00
          0.000e+00
          0.000e+00
          0.000e+00
          0.000e+00
          0.000e+00
          0.000e+00
          0.000e+00
          0.000e+00
          0.000e+00
          0.000e+00
          0.000e+00
          0.000e+00
          0.000e+00
          0.000e+00
          0.000e+00
          0.000e+00
          0.000e+00
          0.000e+00
          0.000e+00
          0.000e+00
          0.000e+00
          0.000e+00
          0.000e+00
          0.000e+00
          0.000e+00
          0.000e+00
          0.000e+00
          0.000e+00
          0.000e+00
          0.000e+00
          0.000e+00
          0.000e+00
          0.000e+00
          0.000e+00
          0.000e+00
          0.000e+00
          0.000e+00
          0.000e+00
          0.000e+00
          0.000e+00
          0.000e+00
          0.000e+00
          0.000e+00
          0.000e+00
          0.000e+00