<?xml version="1.0"?>
<VTKFile type="UnstructuredGrid" version="0.1" byte_order="LittleEndian" compressor="vtkZLibDataCompressor">
  <UnstructuredGrid>
    <Piece NumberOfPoints="2502" NumberOfCells="5000">
      <Points>
        <DataArray type="Float32" NumberOfComponents="3" format="ascii">
          1.128e+02 1.285e+02 1.175e+02
          1.140e+02 1.287e+02 1.175e+02
          1.150e+02 1.287e+02 1.174e+02
          1.160e+02 1.286e+02 1.177e+02
          1.119e+02 1.299e+02 1.169e+02
          1.130e+02 1.296e+02 1.170e+02
          1.139e+02 1.295e+02 1.172e+02
          1.149e+02 1.296e+02 1.170e+02
          1.159e+02 1.298e+02 1.171e+02
          1.168e+02 1.299e+02 1.174e+02
          1.122e+02 1.308e+02 1.166e+02
          1.130e+02 1.306e+02 1.167e+02
          1.138e+02 1.304e+02 1.168e+02
          1.148e+02 1.304e+02 1.168e+02
          1.157e+02 1.307e+02 1.169e+02
          1.115e+02 1.319e+02 1.165e+02
          1.123e+02 1.317e+02 1.165e+02
          1.132e+02 1.316e+02 1.165e+02
          1.140e+02 1.313e+02 1.166e+02
          1.147e+02 1.311e+02 1.167e+02
          1.166e+02 1.316e+02 1.169e+02
          1.150e+02 1.320e+02 1.165e+02
          1.096e+02 1.272e+02 1.182e+02
          1.124e+02 1.273e+02 1.180e+02
          1.132e+02 1.279e+02 1.178e+02
          1.132e+02 1.271e+02 1.182e+02
          1.140e+02 1.279e+02 1.180e+02
          1.141e+02 1.270e+02 1.184e+02
          1.149e+02 1.278e+02 1.181e+02
          1.149e+02 1.270e+02 1.185e+02
          1.156e+02 1.274e+02 1.183e+02
          1.094e+02 1.281e+02 1.179e+02
          1.104e+02 1.277e+02 1.178e+02
          1.116e+02 1.278e+02 1.177e+02
          1.162e+02 1.278e+02 1.181e+02
          1.091e+02 1.291e+02 1.177e+02
          1.099e+02 1.289e+02 1.174e+02
          1.120e+02 1.289e+02 1.173e+02
          1.115e+02 1.293e+02 1.171e+02
          1.109e+02 1.285e+02 1.174e+02
          1.170e+02 1.290e+02 1.177e+02
          1.080e+02 1.302e+02 1.176e+02
          1.088e+02 1.299e+02 1.175e+02
          1.097e+02 1.296e+02 1.173e+02
          1.109e+02 1.296e+02 1.170e+02
          1.075e+02 1.312e+02 1.175e+02
          1.081e+02 1.310e+02 1.173e+02
          1.090e+02 1.309e+02 1.171e+02
          1.111e+02 1.308e+02 1.167e+02
          1.099e+02 1.305e+02 1.169e+02
          1.167e+02 1.309e+02 1.171e+02
          1.175e+02 1.309e+02 1.174e+02
          1.184e+02 1.311e+02 1.178e+02
          1.074e+02 1.321e+02 1.173e+02
          1.081e+02 1.321e+02 1.169e+02
          1.089e+02 1.319e+02 1.168e+02
          1.105e+02 1.318e+02 1.166e+02
          1.096e+02 1.316e+02 1.167e+02
          1.157e+02 1.317e+02 1.167e+02
          1.174e+02 1.319e+02 1.171e+02
          1.082e+02 1.332e+02 1.168e+02
          1.090e+02 1.330e+02 1.166e+02
          1.099e+02 1.326e+02 1.166e+02
          1.107e+02 1.329e+02 1.165e+02
          1.115e+02 1.328e+02 1.165e+02
          1.125e+02 1.327e+02 1.165e+02
          1.133e+02 1.326e+02 1.165e+02
          1.142e+02 1.324e+02 1.165e+02
          1.155e+02 1.324e+02 1.166e+02
          1.161e+02 1.327e+02 1.166e+02
          1.169e+02 1.324e+02 1.168e+02
          1.075e+02 1.335e+02 1.171e+02
          1.092e+02 1.343e+02 1.166e+02
          1.100e+02 1.340e+02 1.166e+02
          1.108e+02 1.337e+02 1.166e+02
          1.115e+02 1.335e+02 1.166e+02
          1.125e+02 1.336e+02 1.166e+02
          1.134e+02 1.335e+02 1.166e+02
          1.143e+02 1.333e+02 1.165e+02
          1.152e+02 1.329e+02 1.165e+02
          1.172e+02 1.335e+02 1.169e+02
          1.084e+02 1.346e+02 1.168e+02
          1.121e+02 1.345e+02 1.167e+02
          1.133e+02 1.345e+02 1.167e+02
          1.143e+02 1.343e+02 1.167e+02
          1.162e+02 1.338e+02 1.167e+02
          1.112e+02 1.352e+02 1.169e+02
          1.079e+02 1.255e+02 1.194e+02
          1.070e+02 1.264e+02 1.190e+02
          1.094e+02 1.266e+02 1.185e+02
          1.104e+02 1.268e+02 1.182e+02
          1.104e+02 1.260e+02 1.187e+02
          1.113e+02 1.266e+02 1.182e+02
          1.113e+02 1.258e+02 1.188e+02
          1.119e+02 1.263e+02 1.185e+02
          1.121e+02 1.257e+02 1.189e+02
          1.127e+02 1.264e+02 1.185e+02
          1.130e+02 1.255e+02 1.190e+02
          1.136e+02 1.263e+02 1.186e+02
          1.144e+02 1.263e+02 1.188e+02
          1.154e+02 1.265e+02 1.188e+02
          1.163e+02 1.261e+02 1.193e+02
          1.070e+02 1.275e+02 1.188e+02
          1.091e+02 1.272e+02 1.183e+02
          1.087e+02 1.277e+02 1.183e+02
          1.082e+02 1.268e+02 1.186e+02
          1.168e+02 1.269e+02 1.189e+02
          1.070e+02 1.286e+02 1.184e+02
          1.085e+02 1.281e+02 1.182e+02
          1.083e+02 1.289e+02 1.180e+02
          1.080e+02 1.280e+02 1.183e+02
          1.162e+02 1.271e+02 1.186e+02
          1.166e+02 1.280e+02 1.181e+02
          1.175e+02 1.282e+02 1.182e+02
          1.171e+02 1.275e+02 1.185e+02
          1.064e+02 1.293e+02 1.185e+02
          1.180e+02 1.290e+02 1.180e+02
          1.071e+02 1.298e+02 1.180e+02
          1.176e+02 1.300e+02 1.176e+02
          1.182e+02 1.306e+02 1.177e+02
          1.185e+02 1.300e+02 1.181e+02
          1.067e+02 1.308e+02 1.180e+02
          1.066e+02 1.323e+02 1.178e+02
          1.060e+02 1.312e+02 1.182e+02
          1.188e+02 1.309e+02 1.181e+02
          1.057e+02 1.320e+02 1.184e+02
          1.060e+02 1.331e+02 1.182e+02
          1.185e+02 1.320e+02 1.176e+02
          1.059e+02 1.343e+02 1.183e+02
          1.068e+02 1.339e+02 1.175e+02
          1.182e+02 1.330e+02 1.173e+02
          1.191e+02 1.330e+02 1.180e+02
          1.066e+02 1.352e+02 1.179e+02
          1.075e+02 1.348e+02 1.173e+02
          1.093e+02 1.355e+02 1.170e+02
          1.102e+02 1.354e+02 1.169e+02
          1.138e+02 1.350e+02 1.169e+02
          1.147e+02 1.349e+02 1.169e+02
          1.154e+02 1.343e+02 1.168e+02
          1.169e+02 1.344e+02 1.170e+02
          1.179e+02 1.340e+02 1.173e+02
          1.057e+02 1.354e+02 1.187e+02
          1.073e+02 1.358e+02 1.177e+02
          1.083e+02 1.357e+02 1.173e+02
          1.125e+02 1.353e+02 1.170e+02
          1.136e+02 1.358e+02 1.172e+02
          1.144e+02 1.355e+02 1.171e+02
          1.163e+02 1.352e+02 1.172e+02
          1.171e+02 1.352e+02 1.174e+02
          1.119e+02 1.362e+02 1.174e+02
          1.128e+02 1.363e+02 1.175e+02
          1.154e+02 1.356e+02 1.173e+02
          1.081e+02 1.246e+02 1.201e+02
          1.071e+02 1.253e+02 1.196e+02
          1.074e+02 1.248e+02 1.202e+02
          1.089e+02 1.245e+02 1.199e+02
          1.092e+02 1.255e+02 1.192e+02
          1.105e+02 1.251e+02 1.194e+02
          1.109e+02 1.243e+02 1.200e+02
          1.114e+02 1.249e+02 1.194e+02
          1.118e+02 1.242e+02 1.200e+02
          1.124e+02 1.248e+02 1.194e+02
          1.127e+02 1.241e+02 1.201e+02
          1.131e+02 1.247e+02 1.195e+02
          1.135e+02 1.243e+02 1.200e+02
          1.136e+02 1.249e+02 1.194e+02
          1.139e+02 1.255e+02 1.191e+02
          1.144e+02 1.247e+02 1.197e+02
          1.150e+02 1.256e+02 1.192e+02
          1.153e+02 1.247e+02 1.198e+02
          1.159e+02 1.253e+02 1.196e+02
          1.169e+02 1.253e+02 1.202e+02
          1.172e+02 1.260e+02 1.198e+02
          1.060e+02 1.280e+02 1.191e+02
          1.171e+02 1.266e+02 1.193e+02
          1.175e+02 1.271e+02 1.191e+02
          1.061e+02 1.287e+02 1.188e+02
          1.058e+02 1.290e+02 1.189e+02
          1.178e+02 1.277e+02 1.188e+02
          1.183e+02 1.282e+02 1.187e+02
          1.055e+02 1.294e+02 1.190e+02
          1.188e+02 1.291e+02 1.185e+02
          1.058e+02 1.301e+02 1.185e+02
          1.052e+02 1.310e+02 1.188e+02
          1.051e+02 1.303e+02 1.192e+02
          1.051e+02 1.317e+02 1.190e+02
          1.193e+02 1.307e+02 1.185e+02
          1.194e+02 1.312e+02 1.184e+02
          1.193e+02 1.301e+02 1.188e+02
          1.054e+02 1.326e+02 1.189e+02
          1.191e+02 1.317e+02 1.181e+02
          1.198e+02 1.319e+02 1.187e+02
          1.053e+02 1.336e+02 1.188e+02
          1.051e+02 1.329e+02 1.194e+02
          1.194e+02 1.325e+02 1.182e+02
          1.199e+02 1.327e+02 1.187e+02
          1.052e+02 1.344e+02 1.190e+02
          1.051e+02 1.336e+02 1.194e+02
          1.192e+02 1.337e+02 1.181e+02
          1.197e+02 1.335e+02 1.185e+02
          1.188e+02 1.341e+02 1.179e+02
          1.183e+02 1.345e+02 1.178e+02
          1.192e+02 1.343e+02 1.184e+02
          1.058e+02 1.364e+02 1.188e+02
          1.066e+02 1.362e+02 1.182e+02
          1.076e+02 1.364e+02 1.179e+02
          1.084e+02 1.368e+02 1.180e+02
          1.092e+02 1.367e+02 1.177e+02
          1.101e+02 1.367e+02 1.176e+02
          1.110e+02 1.365e+02 1.175e+02
          1.177e+02 1.349e+02 1.176e+02
          1.174e+02 1.354e+02 1.178e+02
          1.183e+02 1.349e+02 1.180e+02
          1.053e+02 1.361e+02 1.194e+02
          1.067e+02 1.371e+02 1.186e+02
          1.074e+02 1.370e+02 1.183e+02
          1.123e+02 1.369e+02 1.178e+02
          1.138e+02 1.367e+02 1.178e+02
          1.147e+02 1.363e+02 1.176e+02
          1.165e+02 1.359e+02 1.176e+02
          1.173e+02 1.358e+02 1.180e+02
          1.059e+02 1.373e+02 1.190e+02
          1.082e+02 1.376e+02 1.184e+02
          1.091e+02 1.378e+02 1.185e+02
          1.101e+02 1.378e+02 1.184e+02
          1.112e+02 1.378e+02 1.184e+02
          1.080e+02 1.239e+02 1.208e+02
          1.082e+02 1.233e+02 1.213e+02
          1.086e+02 1.238e+02 1.206e+02
          1.089e+02 1.231e+02 1.210e+02
          1.077e+02 1.242e+02 1.208e+02
          1.071e+02 1.248e+02 1.206e+02
          1.093e+02 1.238e+02 1.205e+02
          1.100e+02 1.243e+02 1.200e+02
          1.097e+02 1.232e+02 1.208e+02
          1.105e+02 1.237e+02 1.204e+02
          1.113e+02 1.236e+02 1.204e+02
          1.115e+02 1.230e+02 1.209e+02
          1.121e+02 1.235e+02 1.205e+02
          1.124e+02 1.229e+02 1.209e+02
          1.131e+02 1.234e+02 1.206e+02
          1.141e+02 1.238e+02 1.203e+02
[...]
      <PointData Scalars="JD_Thresh">
        <DataArray type="Float32" Name="JD_Thresh" NumberOfComponents="1" format="ascii">
          0.000e+00
          0.000e+00
          0.000e+00
          0.000e+00
          0.000e+00
          0.000e+00
          0.000e+00
          0.000e+00
          0.000e+00
          0.000e+00
          0.000e+00
          0.000e+00
          0.000e+00
          0.000e+00
          0.000e+00
          0.000e+00
          0.000e+00
          0.000e+00
          0.000e+00
          0.000e+00
          0.000e+00
          0.000e+00
          0.000e+00
          0.000e+00
          0.000e+00
          0.000e+00
          0.000e+00
          0.000e+00
          0.000e+00
          0.000e+00
          0.000e+00
          0.000e+00
          0.000e+00
          0.000e+00
          0.000e+00
          0.000e+00
          0.000e+00
          0.000e+00
          0.000e+00
          0.000e+00
          0.000e+00
          0.000e+00
          0.000e+00
          0.000e+00
          0.000e+00
          0.000e+00
          0.000e+00
          0.000e+00
          0.000e+00
          0.000e+00
          0.000e+00
          0.000e+00
          0.000e+00
          0.000e+00
          0.000e+00
          0.000e+00
          0.000e+00
          0.000e+00
          0.000e+00
          0.000e+00
          0.000e+00
          0.000e+00
          0.000e+00
          0.000e+00
          0.000e+00
          0.000e+00
          0.000e+00
          0.000e+00
          0.000e+00
          0.000e+00
          0.000e+00
          0.000e+00
          0.000e+00
          0.000e+00
          0.000e+00
          0.000e+00
          0.000e+00
          0.000e+00
          0.000e+00
          0.000e+00
          0.000e+00
          0.000e+00
          0.000e+00
          0.000e+00
          0.000e+00
          0.000e+00
          0.000e+00
          0.000e+00
          0.000e+00
          0.000e+00
          0.000e+00
          0.000e+00
          0.000e+00
          0.000e+00
          0.000e+00
          0.000e+00
          0.000e+00
          0.000e+00
          0.000e+00
          0.000e+00
          0.000e+00
          0.000e+00
          0.000e+00
          0.000e+00
          0.000e+00
          0.000e+00
          0.000e+00
          0.000e+00
          0.000e+00
          0.000e+00
          0.000e+00
          0.000e+00
          0.000e+00
          0.000e+00
          0.000e+00
          0.000e+00
          0.000e+00
          0.000e+00
          0.000e+00
          0.000e+00
          0.000e+00
          0.000e+00
          0.000e+00
          0.000e+00
          0.000e+00
          0.000e+00
          0.000e+00
          0.000e+00
          0.000e+00
          0.000e+00
          0.000e+00
          0.000e+00
          0.000e+00
          0.000e+00
          0.000e+00
          0.000e+00
          0.000e+00
          0.000e+00
          0.000e+00
          0.000e+00
          0.000e+00
          0.000e+00
          0.000e+00
          0.000e+00
          0.000e+00
          0.000e+00
          0.000e+00
          0.000e+00
          0.000e+00
          0.000e+00
          0.000e+00
          0.000e+00
          0.000e+00
          0.000e+00
          0.000e+00
          0.000e+00
          0.000e+00
          0.000e+00
          0.000e+00
          0.000e+00
          0.000e+00
          0.000e+00
          0.000e+00
          0.000e+00
          0.000e+00
          0.000e+00
          0.000e+00
          0.000e+00
          0.000e+00
          0.000e+00
          0.000e+00
          0.000e+00
          0.000e+00
          0.000e+00
          0.000e+00
          0.000e+00
          0.000e+00
          0.000e+00
          0.000e+00
          0.000e+00
          0.000e+00
          0.000e+00
          0.000e+00
          0.000e+00
          0.000e+00
          0.000e+00
          0.000e+00
          0.000e+00
          0.000e+00
          0.000e+00
          0.000e+00
          0.000e+00
          0.000e+00
          0.000e+00
          0.000e+00
          0.000e+00
          0.000e+00
          0.000e+00
          0.000e+00
          0.000e+00
          0.000e+00
          0.000e+00
          0.000e+00
          0.000e+00
          0.000e+00
          0.000e+00
          0.000e+00
          0.000e+00
          0.000e+00
          0.000e+00
          0.000e+00
          0.000e+00
          0.000e+00
          0.000e+00
          0.000e+00
          0.000e+00
          0.000e+00
          0.000e+00
          0.000e+00
          0.000e+00
          0.000e+00
          0.000e+00
          0.000e+00
          0.000e+00
          0.000e+00
          0.000e+00
          0.000e+00
          0.000e+00
          0.000e+00
          0.000e+00
          0.000e+00
          0.000e+00
          0.000e+00
          0.000e+00
          0.000e+00
          0.000e+00
          0.000e+00
          0.000e+00
          0.000e+00
          0.000e+00
          0.000e+00
          0.000e+00
          0.000e+00
          0.000e+00
          0.000e+00
          0.000e+00
          0.000e+00
          0.000e+00
          0.000e+00
          0.000e+00
          0.000e+00
          0.000e+00
          0.000e+00
          0.000e+00
          0.000e+00
          0.000e+00
          0.000e+00
          0.000e+00
          0.000e+00
          0.000e+00
          0.000e+00
          0.000e+00
          0.000e+00
          0.000e+00
          0.000e+00
          0.000e+00
          0.000e+00
          0.000e+00
          0.000e+00
          0.000e+00
          0.000e+00
          0.000e+00
          0.000e+00
          0.000e+00
          0.000e+00
          0.000e+00
          0.000e+00
          0.000e+00
          0.000e+00
          0.000e+00
          0.000e+00
          0.000e+00
          0.000e+00
          0.000e+00
          0.000e+00
          0.000e+00
          0.000e+00
          0.000e+00
          0.000e+00
          0.000e+00
          0.000e+00
          0.000e+00
          0.000e+00
          0.000e+00
          0.000e+00
          0.000e+00
          0.000e+00
          0.000e+00
          0.000e+00
          0.000e+00
          0.000e+00
          0.000e+00
          0.000e+00
          0.000e+00
          0.000e+00
          0.000e+00
          0.000e+00
          0.000e+00
          0.000e+00
          0.000e+00
          0.000e+00
          0.000e+00
          0.000e+00
          0.000e+00
          0.000e+00
          0.000e+00
          0.000e+00
          0.000e+00
          0.000e+00
          0.000e+00
          0.000e+00
          0.000e+00
          0.000e+00
          0.000e+00
          0.000e+00
          0.000e+00
          0.000e+00
          0.000e+00
          0.000e+00
          0.000e+00
          0.000e+00
          0.000e+00
          0.000e+00
          0.000e+00
          0.000e+00
          0.000e+00
          0.000e+00
          0.000e+00
          0.000e+00
          0.000e+00
          0.000e+00
          0.000e+00
          0.000e+00
          0.000e+00
          0.000e+00
          0.000e+00
          0.000e+00
          0.000e+00
          0.000e+00
          0.000e+00
          0.000e+00
          0.000e+00
          0.000e+00
          0.000e+00
          0.000e+00
          0.000e+00
          0.000e+00
          0.000e+00
          0.000e+00
          0.000e+00
          0.000e+00
          0.000e+00
          0.000e+00
          0.000e+00
          0.000e+00
          0.000e+00
          0.000e+00
          0.000e+00
          0.000e+00
          0.000e+00
          0.000e+00
          0.000e+00
          0.000e+00
          0.000e+00
          0.000e+00
          0.000e+00
          0.000e+00
          0.000e+00
          0.000e+00
          0.000e+00
          0.000e+00
          0.000e+00
          0.000e+00
          0.000e+00
          0.000e+00
          0.000e+00
          0.000e+00
          0.000e+00
          0.000e+00
          0.000e+00
          0.000e+00
          0.000e+00
          0.000e+00
          0.000e+00
          0.000e+00
          0.000e+00
          0.000e+00
          0.000e+00
          0.000e+00
          0.000e+00
          0.000e+00
          0.000e+00
          0.000e+00
          0.000e+00
          0.000e+00
          0.000e+00
          0.000e+00
          0.000e+00
          0.000e+00
          0.000e+00
          0.000e+00
          0.000e+00
          0.000e+00
          0.000e+00
          0.000e+00
          0.000e+00
          0.000e+00
          0.000e+00
          0.000e+00
          0.000e+00
          0.000e+00
          0.000e+00
          0.000e+00
          0.000e+00
          0.000e+00
          0.000e+00
          0.000e+00
          0.000e+00
          0.000e+00
          0.000e+00
          0.000e+00
          0.000e+00
          0.000e+00
          0.000e+00
          0.000e+00
          0.000e+00
          0.000e+00
          0.000e+00
          0.000e+00
          0.000e+00
          0.000e+00
          0.000e+00
          0.000e+00
          0.000e+00
          0.000e+00
          0.000e+00
          0.000e+00
          0.000e+00
          0.000e+00
          0.000e+00
          0.000e+00
          0.000e+00
          0.000e+00
          0.000e+00
          0.000e+00
          0.000e+00
          0.000e+00
          0.000e+00
          0.000e+00
          0.000e+00
          0.000e+00
          0.000e+00
          0.000e+00
          0.000e+00
          0.000e+00
          0.000e+00
          0.000e+00
          0.000e+00
          0.000e+00
          0.000e+00
          0.000e+00
          0.000e+00
          0.000e+00
          0.000e+00
          0.000e+00
          0.000e+00
          0.000e+00
          0.000e+00
          0.000e+00
          0.000e+00
          0.000e+00
          0.000e+00
          0.000e+00
          0.000e+00
          0.000e+00
          0.000e+00
          0.000e+00
          0.000e+00
          0.000e+00
          0.000e+00
          0.000e+00
          0.000e+00
          0.000e+00
          0.000e+00
          0.000e+00
          0.000e+00
          0.000e+00
          0.000e+00
          0.000e+00
          0.000e+00
          0.000e+00
          0.000e+00
          0.000e+00
          0.000e+00
          0.000e+00
          0.000e+00
          0.000e+00
          0.000e+00
          0.000e+00
          0.000e+00
          0.000e+00
          0.000e+00
          0.000e+00
          0.000e+00
          0.000e+00
          0.000e+00
          0.000e+00
          0.000e+00
          0.000e+00
          0.000e+00
          0.000e+00
          0.000e+00
          0.000e+00
          0.000e+00
          0.000e+00
          0.000e+00
          0.000e+00
          0.000e+00
          0.000e+00
          0.000e+00
          0.000e+00
          0.000e+00
          0.000e+00
          0.000e+00
          0.000e+00
          0.000e+00
          0.000e+00
          0.000e+00
          0.000e+00
          0.000e+00
          0.000e+00
          0.000e+00
          0.000e+00
          0.000e+00
          0.000e+00
          0.000e+00
          0.000e+00
          0.000e+00
          0.000e+00
          0.000e+00
          0.000e+00
          0.000e+00
          0.000e+00
          0.000e+00
          0.000e+00
          0.000e+00
          0.000e+00
          0.000e+00
          0.000e+00
          0.000e+00
          0.000e+00
          0.000e+00
          0.000e+00
          0.000e+00
          0.000e+00
          0.000e+00
          0.000e+00
          0.000e+00
          0.000e+00
          0.000e+00
          0.000e+00
          0.000e+00
          0.000e+00
          0.000e+00
          0.000e+00
          0.000e+00
          0.000e+00
          0.000e+00
          0.000e+00
          0.000e+00
          0.000e+00
          0.000e+00
          0.000e+00
          0.000e+00
          0.000e+00
          0.000e+00
          0.000e+00
          0.000e+00
          0.000e+00
          0.000e+00
          0.000e+00
          0.000e+00
          0.000e+00
          0.000e+00
          0.000e+00
          0.000e+00
          0.000e+00
          0.000e+00
          0.000e+00
          0.000e+00
          0.000e+00
          0.000e+00
          0.000e+00
          0.000e+00
          0.000e+00
          0.000e+00
          0.000e+00
          0.000e+00
          0.000e+00
          0.000e+00
          0.000e+00
          0.000e+00
          0.000e+00
          0.000e+00
          0.000e+00
          0.000e+00
          0.000e+00
          0.000e+00
          0.000e+00
          0.000e+00
          0.000e+00
          0.000e+00
          0.000e+00
          0.000e+00
          0.000e+00
          0.000e+00
          0.000e+00
          0.000e+00
          0.000e+00
          0.000e+00
          0.000e+00
          0.000e+00
          0.000e+00
          0.000e+00
          0.000e+00
          0.000e+00
          0.000e+00
          0.000e+00
          0.000e+00
          0.000e+00
          0.000e+00
          0.000e+00
          0.000e+00
          0.000e+00
          0.000e+00
          0.000e+00
          0.000e+00
          0.000e+00
          0.000e+00
          0.000e+00
          0.000e+00
          0.000e+00
          0.000e+00
          0.000e+00
          0.000e+00
          0.000e+00
          0.000e+00
          0.000e+00
          0.000e+00
          0.000e+00
          0.000e+00
          0.000e+00
          0.000e+00
          0.000e+00
          0.000e+00
          0.000e+00
          0.000e+00
          0.000e+00
          0.000e+00
          0.000e+00
          0.000e+00
          0.000e+00
          0.000e+00
          0.000e+00
          0.000e+00
          0.000e+00
          0.000e+00
          0.000e+00
          0.000e+00
          0.000e+00
          0.000e+00
          0.000e+00
          0.000e+00
          0.000e+00
          0.000e+00
          0.000e+00
          0.000e+00
          0.000e+00
          0.000e+00
          0.000e+00
          0.000e+00
          0.000e+00
          0.000e+00
          0.000e+00
          0.000e+00
          0.000e+00
          0.000e+00
          0.000e+00
          0.000e+00
          0.000e+00
          0.000e+00
          0.000e+00
          0.000e+00
          0.000e+00
          0.000e+00
          0.000e+00
          0.000e+00
          0.000e+00
          0.000e+00
          0.000e+00
          0.000e+00
          0.000e+00
          0.000e+00
          0.000e+00
          0.000e+00
          0.000e+00
          0.000e+00
          0.000e+00
          0.000e+00
          0.000e+00
          0.000e+00
          0.000e+00
          0.000e+00
          0.000e+00
          0.000e+00
          0.000e+00
          0.000e+00
          0.000e+00
          0.000e+00
          0.000e+00
          0.000e+00
          0.000e+00
          0.000e+00
          0.000e+00
          0.000e+00
          0.000e+00
          0.000e+00
          0.000e+00
          0.000e+00
          0.000e+00
          0.000e+00
          0.000e+00
          0.000e+00
          0.000e+00
          0.000e+00
          0.000e+00
          0.000e+00
          0.000e+00
          0.000e+00
          0.000e+00
          0.000e+00
          0.000e+00
          0.000e+00
          0.000e+00
          0.000e+00
          0.000e+00
          0.000e+00
          0.000e+00
          0.000e+00
          0.000e+00
          0.000e+00
          0.000e+00
          0.000e+00
          0.000e+00
          0.000e+00
          0.000e+00
          0.000e+00
          0.000e+00
          0.000e+00
          0.000e+00
          0.000e+00
          0.000e+00
          0.000e+00
          0.000e+00
          0.000e+00
          0.000e+00
          0.000e+00
          0.000e+00
          0.000e+00
          0.000e+00
          0.000e+00
          0.000e+00
          0.000e+00
          0.000e+00
          0.000e+00
          0.000e+00
          0.000e+00
          0.000e+00
          0.000e+00
          0.000e+00
          0.000e+00
          0.000e+00
          0.000e+00
          0.000e+00
          0.000e+00
          0.000e+00
          0.000e+00
          0.000e+00
          0.000e+00
          0.000e+00
          0.000e+00
          0.000e+00
          0.000e+00
          0.000e+00
          0.000e+00
          0.000e+00
          0.000e+00
          0.000e+00
          0.000e+00
          0.000e+00
          0.000e+00
          0.000e+00
          0.000e+00
          0.000e+00
          0.000e+00
          0.000e+00
          0.000e+00
          0.000e+00
          0.000e+00
          0.000e+00
          0.000e+00
          0.000e+00
          0.000e+00
          0.000e+00
          0.000e+00
          0.000e+00
          0.000e+00
          0.000e+00
          0.000e+00
          0.000e+00
          0.000e+00
          0.000e+00
          0.000e+00
          0.000e+00
          0.000e+00
          0.000e+00
          0.000e+00
          0.000e+00
          0.000e+00
          0.000e+00
          0.000e+00
          0.000e+00
          0.000e+00
          0.000e+00
          0.000e+00
          0.000e+00
          0.000e+00
          0.000e+00
          0.000e+00
          0.000e+00
          0.000e+00
          0.000e+00
          0.000e+00
          0.000e+00
          0.000e+00
          0.000e+00
          0.000e+00
          0.000e+00
          0.000e+00
          0.000e+00
          0.000e+00
          0.000e+00
          0.000e+00
          0.000e+00
          0.000e+00
          0.000e+00
          0.000e+00
          0.000e+00
          0.000e+00
          0.000e+00
          0.000e+00
          0.000e+00
          0.000e+00
          0.000e+00
          0.000e+00
          0.000e+00
          0.000e+00
          0.000e+00
          0.000e+00
          0.000e+00
          0.000e+00
          0.000e+00
          0.000e+00
          0.000e+00
          0.000e+00
          0.000e+00
          0.000e+00
          0.000e+00
          0.000e+00
          0.000e+00
          0.000e+00
          0.000e+00
          0.000e+00
          0.000e+00
          0.000e+00
          0.000e+00
          0.000e+00
          0.000e+00
          0.000e+00
          0.000e+00
          0.000e+00
          0.000e+00
          0.000e+00
          0.000e+00
          0.000e+00
          0.000e+00
          0.000e+00
          0.000e+00
          0.000e+00
          0.000e+00
          0.000e+00
          0.000e+00
          0.000e+00
          0.000e+00
          0.000e+00
          0.000e+00
          0.000e+00
          0.000e+00
          0.000e+00
          0.000e+00
          0.000e+00
          0.000e+00
          0.000e+00
          0.000e+00
          0.000e+00
          0.000e+00
          0.000e+00
          0.000e+00
          0.000e+00
          0.000e+00
          0.000e+00
          0.000e+00
          0.000e+00
          0.000e+00
          0.000e+00
          0.000e+00
          0.000e+00
          0.000e+00
          0.000e+00
          0.000e+00
          0.000e+00
          0.000e+00
          0.000e+00
          0.000e+00
          0.000e+00
          0.000e+00
          0.000e+00
          0.000e+00
          0.000e+00
          0.000e+00
          0.000e+00
          0.000e+00
          0.000e+00
          0.000e+00
          0.000e+00
          0.000e+00
          0.000e+00
          0.000e+00
          0.000e+00
          0.000e+00
          0.000e+00
          0.000e+00
          0.000e+00
          0.000e+00
          0.000e+00
          0.000e+00
          0.000e+00
          0.000e+00
          0.000e+00
          0.000e+00
          0.000e+00
          0.000e+00
          0.000e+00
          0.000e+00
          0.000e+00
          0.000e+00
          0.000e+00
          0.000e+00
          0.000e+00
          0.000e+00
          0.000e+00
          0.000e+00
          0.000e+00
          0.000e+00
          0.000e+00
          0.000e+00
          0.000e+00
          0.000e+00
          0.000e+00
          0.000e+00
          0.000e+00
          0.000e+00
          0.000e+00