<?xml version="1.0"?>
<VTKFile type="UnstructuredGrid" version="0.1" byte_order="LittleEndian" compressor="vtkZLibDataCompressor">
  <UnstructuredGrid>
    <Piece NumberOfPoints="930" NumberOfCells="1856">
      <Points>
        <DataArray type="Float32" NumberOfComponents="3" format="ascii">
          1.229e+02 1.360e+02 1.573e+02
          1.232e+02 1.362e+02 1.570e+02
          1.226e+02 1.366e+02 1.575e+02
          1.228e+02 1.372e+02 1.572e+02
          1.223e+02 1.373e+02 1.586e+02
          1.228e+02 1.358e+02 1.589e+02
          1.232e+02 1.360e+02 1.574e+02
          1.227e+02 1.361e+02 1.581e+02
          1.233e+02 1.360e+02 1.573e+02
          1.221e+02 1.367e+02 1.587e+02
          1.219e+02 1.365e+02 1.590e+02
          1.232e+02 1.370e+02 1.572e+02
          1.228e+02 1.373e+02 1.583e+02
          1.221e+02 1.373e+02 1.582e+02
          1.215e+02 1.374e+02 1.572e+02
          1.223e+02 1.378e+02 1.583e+02
          1.222e+02 1.378e+02 1.574e+02
          1.224e+02 1.382e+02 1.576e+02
          1.210e+02 1.375e+02 1.553e+02
          1.219e+02 1.376e+02 1.554e+02
          1.222e+02 1.379e+02 1.562e+02
          1.221e+02 1.385e+02 1.558e+02
          1.210e+02 1.379e+02 1.538e+02
          1.219e+02 1.377e+02 1.533e+02
          1.222e+02 1.386e+02 1.536e+02
          1.186e+02 1.416e+02 1.540e+02
          1.191e+02 1.416e+02 1.536e+02
          1.179e+02 1.424e+02 1.547e+02
          1.182e+02 1.423e+02 1.545e+02
          1.187e+02 1.425e+02 1.541e+02
          1.227e+02 1.354e+02 1.596e+02
          1.231e+02 1.358e+02 1.585e+02
          1.222e+02 1.360e+02 1.593e+02
          1.215e+02 1.365e+02 1.591e+02
          1.233e+02 1.360e+02 1.582e+02
          1.212e+02 1.369e+02 1.585e+02
          1.211e+02 1.366e+02 1.591e+02
          1.233e+02 1.365e+02 1.579e+02
          1.209e+02 1.372e+02 1.575e+02
          1.208e+02 1.374e+02 1.564e+02
          1.206e+02 1.372e+02 1.576e+02
          1.230e+02 1.375e+02 1.585e+02
          1.204e+02 1.375e+02 1.557e+02
          1.222e+02 1.386e+02 1.574e+02
          1.220e+02 1.389e+02 1.557e+02
          1.207e+02 1.380e+02 1.539e+02
          1.201e+02 1.382e+02 1.540e+02
          1.217e+02 1.378e+02 1.521e+02
          1.222e+02 1.392e+02 1.519e+02
          1.218e+02 1.389e+02 1.547e+02
          1.218e+02 1.393e+02 1.535e+02
          1.217e+02 1.392e+02 1.553e+02
          1.200e+02 1.387e+02 1.527e+02
          1.212e+02 1.383e+02 1.514e+02
          1.221e+02 1.398e+02 1.513e+02
          1.217e+02 1.397e+02 1.532e+02
          1.216e+02 1.398e+02 1.550e+02
          1.182e+02 1.388e+02 1.552e+02
          1.192e+02 1.391e+02 1.533e+02
          1.198e+02 1.396e+02 1.508e+02
          1.206e+02 1.396e+02 1.500e+02
          1.215e+02 1.405e+02 1.507e+02
          1.213e+02 1.404e+02 1.532e+02
          1.174e+02 1.395e+02 1.557e+02
          1.182e+02 1.397e+02 1.548e+02
          1.188e+02 1.397e+02 1.533e+02
          1.188e+02 1.402e+02 1.511e+02
          1.202e+02 1.416e+02 1.505e+02
          1.212e+02 1.417e+02 1.518e+02
          1.171e+02 1.404e+02 1.557e+02
          1.177e+02 1.403e+02 1.550e+02
          1.184e+02 1.411e+02 1.541e+02
          1.186e+02 1.404e+02 1.538e+02
          1.190e+02 1.409e+02 1.532e+02
          1.188e+02 1.410e+02 1.520e+02
          1.195e+02 1.421e+02 1.517e+02
          1.207e+02 1.416e+02 1.527e+02
          1.169e+02 1.412e+02 1.558e+02
          1.177e+02 1.422e+02 1.549e+02
          1.174e+02 1.415e+02 1.552e+02
          1.182e+02 1.416e+02 1.544e+02
          1.179e+02 1.418e+02 1.547e+02
          1.179e+02 1.411e+02 1.547e+02
          1.193e+02 1.411e+02 1.529e+02
          1.194e+02 1.416e+02 1.535e+02
          1.197e+02 1.413e+02 1.530e+02
          1.204e+02 1.415e+02 1.538e+02
          1.178e+02 1.425e+02 1.548e+02
          1.173e+02 1.422e+02 1.552e+02
          1.180e+02 1.428e+02 1.547e+02
          1.185e+02 1.430e+02 1.543e+02
          1.191e+02 1.423e+02 1.538e+02
          1.189e+02 1.429e+02 1.539e+02
          1.193e+02 1.428e+02 1.541e+02
          1.200e+02 1.425e+02 1.544e+02
          1.173e+02 1.429e+02 1.553e+02
          1.177e+02 1.431e+02 1.549e+02
          1.183e+02 1.437e+02 1.547e+02
          1.190e+02 1.437e+02 1.545e+02
          1.196e+02 1.435e+02 1.548e+02
          1.232e+02 1.350e+02 1.599e+02
          1.232e+02 1.355e+02 1.595e+02
          1.224e+02 1.353e+02 1.599e+02
          1.228e+02 1.350e+02 1.601e+02
          1.234e+02 1.356e+02 1.595e+02
          1.204e+02 1.369e+02 1.590e+02
          1.216e+02 1.360e+02 1.596e+02
          1.213e+02 1.361e+02 1.596e+02
          1.234e+02 1.366e+02 1.585e+02
          1.203e+02 1.373e+02 1.573e+02
          1.231e+02 1.375e+02 1.591e+02
          1.197e+02 1.375e+02 1.560e+02
          1.195e+02 1.377e+02 1.552e+02
          1.195e+02 1.375e+02 1.567e+02
          1.224e+02 1.385e+02 1.588e+02
          1.192e+02 1.378e+02 1.550e+02
          1.188e+02 1.376e+02 1.569e+02
          1.220e+02 1.391e+02 1.571e+02
          1.179e+02 1.380e+02 1.578e+02
          1.178e+02 1.384e+02 1.559e+02
          1.181e+02 1.378e+02 1.567e+02
          1.192e+02 1.384e+02 1.542e+02
          1.185e+02 1.383e+02 1.550e+02
          1.185e+02 1.379e+02 1.555e+02
          1.219e+02 1.397e+02 1.565e+02
          1.217e+02 1.401e+02 1.557e+02
          1.178e+02 1.388e+02 1.558e+02
          1.175e+02 1.390e+02 1.563e+02
          1.176e+02 1.384e+02 1.569e+02
          1.216e+02 1.404e+02 1.552e+02
          1.214e+02 1.407e+02 1.547e+02
          1.218e+02 1.403e+02 1.560e+02
          1.172e+02 1.394e+02 1.563e+02
          1.211e+02 1.409e+02 1.540e+02
          1.215e+02 1.412e+02 1.553e+02
          1.168e+02 1.403e+02 1.561e+02
          1.168e+02 1.413e+02 1.559e+02
          1.209e+02 1.411e+02 1.534e+02
          1.169e+02 1.417e+02 1.557e+02
          1.168e+02 1.418e+02 1.559e+02
          1.209e+02 1.418e+02 1.547e+02
          1.208e+02 1.423e+02 1.549e+02
          1.170e+02 1.424e+02 1.556e+02
          1.170e+02 1.428e+02 1.557e+02
          1.206e+02 1.425e+02 1.549e+02
          1.203e+02 1.430e+02 1.550e+02
          1.207e+02 1.429e+02 1.552e+02
          1.172e+02 1.430e+02 1.554e+02
          1.174e+02 1.433e+02 1.553e+02
          1.173e+02 1.435e+02 1.554e+02
          1.178e+02 1.438e+02 1.550e+02
          1.186e+02 1.442e+02 1.550e+02
          1.192e+02 1.441e+02 1.551e+02
          1.201e+02 1.433e+02 1.551e+02
          1.199e+02 1.438e+02 1.552e+02
          1.203e+02 1.434e+02 1.553e+02
          1.208e+02 1.435e+02 1.557e+02
          1.176e+02 1.441e+02 1.555e+02
          1.180e+02 1.443e+02 1.553e+02
          1.239e+02 1.350e+02 1.600e+02
          1.235e+02 1.348e+02 1.602e+02
          1.227e+02 1.350e+02 1.604e+02
          1.237e+02 1.355e+02 1.598e+02
          1.209e+02 1.359e+02 1.600e+02
          1.220e+02 1.355e+02 1.601e+02
          1.216e+02 1.357e+02 1.601e+02
          1.225e+02 1.351e+02 1.606e+02
          1.234e+02 1.364e+02 1.592e+02
          1.201e+02 1.372e+02 1.586e+02
          1.198e+02 1.372e+02 1.586e+02
          1.232e+02 1.374e+02 1.593e+02
          1.195e+02 1.374e+02 1.576e+02
          1.190e+02 1.375e+02 1.578e+02
          1.224e+02 1.387e+02 1.591e+02
          1.179e+02 1.379e+02 1.584e+02
          1.186e+02 1.376e+02 1.575e+02
          1.182e+02 1.377e+02 1.580e+02
          1.221e+02 1.394e+02 1.581e+02
          1.177e+02 1.382e+02 1.580e+02
          1.221e+02 1.400e+02 1.576e+02
          1.176e+02 1.387e+02 1.575e+02
          1.220e+02 1.402e+02 1.567e+02
          1.219e+02 1.406e+02 1.563e+02
          1.220e+02 1.406e+02 1.569e+02
          1.173e+02 1.393e+02 1.572e+02
          1.217e+02 1.411e+02 1.560e+02
          1.217e+02 1.417e+02 1.562e+02
          1.168e+02 1.400e+02 1.568e+02
          1.213e+02 1.416e+02 1.554e+02
          1.167e+02 1.411e+02 1.564e+02
          1.214e+02 1.424e+02 1.558e+02
          1.167e+02 1.423e+02 1.561e+02
          1.212e+02 1.429e+02 1.558e+02
          1.215e+02 1.433e+02 1.566e+02
          1.170e+02 1.434e+02 1.558e+02
          1.191e+02 1.444e+02 1.558e+02
          1.198e+02 1.443e+02 1.556e+02
          1.206e+02 1.440e+02 1.559e+02
          1.212e+02 1.439e+02 1.564e+02
          1.210e+02 1.434e+02 1.558e+02
          1.210e+02 1.437e+02 1.559e+02
          1.211e+02 1.435e+02 1.560e+02
          1.174e+02 1.441e+02 1.557e+02
          1.177e+02 1.443e+02 1.556e+02
          1.179e+02 1.444e+02 1.558e+02
          1.184e+02 1.444e+02 1.555e+02
          1.181e+02 1.443e+02 1.556e+02
          1.184e+02 1.444e+02 1.558e+02
          1.240e+02 1.352e+02 1.602e+02
          1.240e+02 1.349e+02 1.605e+02
          1.239e+02 1.356e+02 1.602e+02
          1.241e+02 1.352e+02 1.604e+02
          1.212e+02 1.357e+02 1.605e+02
          1.222e+02 1.353e+02 1.610e+02
          1.231e+02 1.348e+02 1.607e+02
          1.226e+02 1.350e+02 1.609e+02
          1.235e+02 1.364e+02 1.598e+02
          1.202e+02 1.365e+02 1.599e+02
          1.197e+02 1.368e+02 1.599e+02
          1.233e+02 1.374e+02 1.597e+02
          1.195e+02 1.372e+02 1.590e+02
          1.190e+02 1.374e+02 1.591e+02
          1.227e+02 1.385e+02 1.596e+02
          1.180e+02 1.378e+02 1.593e+02
          1.186e+02 1.375e+02 1.587e+02
          1.184e+02 1.376e+02 1.592e+02
          1.222e+02 1.393e+02 1.591e+02
          1.177e+02 1.382e+02 1.588e+02
          1.222e+02 1.404e+02 1.579e+02
          1.221e+02 1.408e+02 1.574e+02
          1.176e+02 1.388e+02 1.586e+02
          1.220e+02 1.410e+02 1.568e+02
          1.222e+02 1.412e+02 1.576e+02
          1.174e+02 1.395e+02 1.578e+02
          1.220e+02 1.415e+02 1.569e+02
          1.219e+02 1.419e+02 1.570e+02
          1.222e+02 1.418e+02 1.577e+02
          1.168e+02 1.403e+02 1.572e+02
          1.217e+02 1.422e+02 1.566e+02
          1.221e+02 1.422e+02 1.574e+02
          1.223e+02 1.420e+02 1.581e+02
          1.166e+02 1.416e+02 1.567e+02
[...]
      <PointData Scalars="JD_Thresh">
        <DataArray type="Float32" Name="JD_Thresh" NumberOfComponents="1" format="ascii">
          0.000e+00
          0.000e+00
          0.000e+00
          0.000e+00
          0.000e+00
          0.000e+00
          0.000e+00
          0.000e+00
          0.000e+00
          0.000e+00
          0.000e+00
          0.000e+00
          0.000e+00
          0.000e+00
          0.000e+00
          0.000e+00
          0.000e+00
          0.000e+00
          0.000e+00
          0.000e+00
          0.000e+00
          0.000e+00
          0.000e+00
          0.000e+00
          0.000e+00
          0.000e+00
          0.000e+00
          0.000e+00
          0.000e+00
          0.000e+00
          0.000e+00
          0.000e+00
          0.000e+00
          0.000e+00
          0.000e+00
          0.000e+00
          0.000e+00
          0.000e+00
          0.000e+00
          0.000e+00
          0.000e+00
          0.000e+00
          0.000e+00
          0.000e+00
          0.000e+00
          0.000e+00
          0.000e+00
          0.000e+00
          0.000e+00
          0.000e+00
          0.000e+00
          0.000e+00
          0.000e+00
          0.000e+00
          0.000e+00
          0.000e+00
          0.000e+00
          0.000e+00
          0.000e+00
          0.000e+00
          0.000e+00
          0.000e+00
          0.000e+00
          0.000e+00
          0.000e+00
          0.000e+00
          0.000e+00
          0.000e+00
          0.000e+00
          0.000e+00
          0.000e+00
          0.000e+00
          0.000e+00
          0.000e+00
          0.000e+00
          0.000e+00
          0.000e+00
          0.000e+00
          0.000e+00
          0.000e+00
          0.000e+00
          0.000e+00
          0.000e+00
          0.000e+00
          0.000e+00
          0.000e+00
          0.000e+00
          0.000e+00
          0.000e+00
          0.000e+00
          0.000e+00
          0.000e+00
          0.000e+00
          0.000e+00
          0.000e+00
          0.000e+00
          0.000e+00
          0.000e+00
          0.000e+00
          0.000e+00
          0.000e+00
          0.000e+00
          0.000e+00
          0.000e+00
          0.000e+00
          0.000e+00
          0.000e+00
          0.000e+00
          0.000e+00
          0.000e+00
          0.000e+00
          0.000e+00
          0.000e+00
          0.000e+00
          0.000e+00
          0.000e+00
          0.000e+00
          0.000e+00
          0.000e+00
          0.000e+00
          0.000e+00
          0.000e+00
          0.000e+00
          0.000e+00
          0.000e+00
          0.000e+00
          0.000e+00
          0.000e+00
          0.000e+00
          0.000e+00
          0.000e+00
          0.000e+00
          0.000e+00
          0.000e+00
          0.000e+00
          0.000e+00
          0.000e+00
          0.000e+00
          0.000e+00
          0.000e+00
          0.000e+00
          0.000e+00
          0.000e+00
          0.000e+00
          0.000e+00
          0.000e+00
          0.000e+00
          0.000e+00
          0.000e+00
          0.000e+00
          0.000e+00
          0.000e+00
          0.000e+00
          0.000e+00
          0.000e+00
          0.000e+00
          0.000e+00
          0.000e+00
          0.000e+00
          0.000e+00
          0.000e+00
          0.000e+00
          0.000e+00
          0.000e+00
          0.000e+00
          0.000e+00
          0.000e+00
          0.000e+00
          0.000e+00
          0.000e+00
          0.000e+00
          0.000e+00
          0.000e+00
          0.000e+00
          0.000e+00
          0.000e+00
          0.000e+00
          0.000e+00
          0.000e+00
          0.000e+00
          0.000e+00
          0.000e+00
          0.000e+00
          0.000e+00
          0.000e+00
          0.000e+00
          0.000e+00
          0.000e+00
          0.000e+00
          0.000e+00
          0.000e+00
          0.000e+00
          0.000e+00
          0.000e+00
          0.000e+00
          0.000e+00
          0.000e+00
          0.000e+00
          0.000e+00
          0.000e+00
          0.000e+00
          0.000e+00
          0.000e+00
          0.000e+00
          0.000e+00
          0.000e+00
          0.000e+00
          0.000e+00
          0.000e+00
          0.000e+00
          0.000e+00
          0.000e+00
          0.000e+00
          0.000e+00
          0.000e+00
          0.000e+00
          0.000e+00
          0.000e+00
          0.000e+00
          0.000e+00
          0.000e+00
          0.000e+00
          0.000e+00
          0.000e+00
          0.000e+00
          0.000e+00
          0.000e+00
          0.000e+00
          0.000e+00
          0.000e+00
          0.000e+00
          0.000e+00
          0.000e+00
          0.000e+00
          0.000e+00
          0.000e+00
          0.000e+00
          0.000e+00
          0.000e+00
          0.000e+00
          0.000e+00
          0.000e+00
          0.000e+00
          0.000e+00
          0.000e+00
          0.000e+00
          0.000e+00
          0.000e+00
          0.000e+00
          0.000e+00
          0.000e+00
          0.000e+00
          0.000e+00
          0.000e+00
          0.000e+00
          0.000e+00
          0.000e+00
          0.000e+00
          0.000e+00
          0.000e+00
          0.000e+00
          0.000e+00
          0.000e+00
          0.000e+00
          0.000e+00
          0.000e+00
          0.000e+00
          0.000e+00
          0.000e+00
          0.000e+00
          0.000e+00
          0.000e+00
          0.000e+00
          0.000e+00
          0.000e+00
          0.000e+00
          0.000e+00
          0.000e+00
          0.000e+00
          0.000e+00
          0.000e+00
          0.000e+00
          0.000e+00
          0.000e+00
          0.000e+00
          0.000e+00
          0.000e+00
          0.000e+00
          0.000e+00
          0.000e+00
          0.000e+00
          0.000e+00
          0.000e+00
          0.000e+00
          0.000e+00
          0.000e+00
          0.000e+00
          0.000e+00
          0.000e+00
          0.000e+00
          0.000e+00
          0.000e+00
          0.000e+00
          0.000e+00
          0.000e+00
          0.000e+00
          0.000e+00
          0.000e+00
          0.000e+00
          0.000e+00
          0.000e+00
          0.000e+00
          0.000e+00
          0.000e+00
          0.000e+00
          0.000e+00
          0.000e+00
          0.000e+00
          0.000e+00
          0.000e+00
          0.000e+00
          0.000e+00
          0.000e+00
          0.000e+00
          0.000e+00
          0.000e+00
          0.000e+00
          0.000e+00
          0.000e+00
          0.000e+00
          0.000e+00
          0.000e+00
          0.000e+00
          0.000e+00
          0.000e+00
          0.000e+00
          0.000e+00
          0.000e+00
          0.000e+00
          0.000e+00
          0.000e+00
          0.000e+00
          0.000e+00
          0.000e+00
          0.000e+00
          0.000e+00
          0.000e+00
          0.000e+00
          0.000e+00
          0.000e+00
          0.000e+00
          0.000e+00
          0.000e+00
          0.000e+00
          0.000e+00
          0.000e+00
          0.000e+00
          0.000e+00
          0.000e+00
          0.000e+00
          0.000e+00
          0.000e+00
          0.000e+00
          0.000e+00
          0.000e+00
          0.000e+00
          0.000e+00
          0.000e+00
          0.000e+00
          0.000e+00
          0.000e+00
          0.000e+00
          0.000e+00
          0.000e+00
          0.000e+00
          0.000e+00
          0.000e+00
          0.000e+00
          0.000e+00
          0.000e+00
          0.000e+00
          0.000e+00
          0.000e+00
          0.000e+00
          0.000e+00
          0.000e+00
          0.000e+00
          0.000e+00
          0.000e+00
          0.000e+00
          0.000e+00
          0.000e+00
          0.000e+00
          0.000e+00
          0.000e+00
          0.000e+00
          0.000e+00
          0.000e+00
          0.000e+00
          0.000e+00
          0.000e+00
          0.000e+00
          0.000e+00
          0.000e+00
          0.000e+00
          0.000e+00
          0.000e+00
          0.000e+00
          0.000e+00
          0.000e+00
          0.000e+00
          0.000e+00
          0.000e+00
          0.000e+00
          0.000e+00
          0.000e+00
          0.000e+00
          0.000e+00
          0.000e+00
          0.000e+00
          0.000e+00
          0.000e+00
          0.000e+00
          0.000e+00
          0.000e+00
          0.000e+00
          0.000e+00
          0.000e+00
          0.000e+00
          0.000e+00
          0.000e+00
          0.000e+00
          0.000e+00
          0.000e+00
          0.000e+00
          0.000e+00
          0.000e+00
          0.000e+00
          0.000e+00
          0.000e+00
          0.000e+00
          0.000e+00
          0.000e+00
          0.000e+00
          0.000e+00
          0.000e+00
          0.000e+00
          0.000e+00
          0.000e+00
          0.000e+00
          0.000e+00
          0.000e+00
          0.000e+00
          0.000e+00
          0.000e+00
          0.000e+00
          0.000e+00
          0.000e+00
          0.000e+00
          0.000e+00
          0.000e+00
          0.000e+00
          0.000e+00
          0.000e+00
          0.000e+00
          0.000e+00
          0.000e+00
          0.000e+00
          0.000e+00
          0.000e+00
          0.000e+00
          0.000e+00
          0.000e+00
          0.000e+00
          0.000e+00
          0.000e+00
          0.000e+00
          0.000e+00
          0.000e+00
          0.000e+00
          0.000e+00
          0.000e+00
          0.000e+00
          0.000e+00
          0.000e+00
          0.000e+00
          0.000e+00
          0.000e+00
          0.000e+00
          0.000e+00
          0.000e+00
          0.000e+00
          0.000e+00
          0.000e+00
          0.000e+00
          0.000e+00
          0.000e+00
          0.000e+00
          0.000e+00
          0.000e+00
          0.000e+00
          0.000e+00
          0.000e+00
          0.000e+00
          0.000e+00
          0.000e+00
          0.000e+00
          0.000e+00
          0.000e+00
          0.000e+00
          0.000e+00
          0.000e+00
          0.000e+00
          0.000e+00
          0.000e+00
          0.000e+00
          0.000e+00
          0.000e+00
          0.000e+00
          0.000e+00
          0.000e+00
          0.000e+00
          0.000e+00
          0.000e+00
          0.000e+00
          0.000e+00
          0.000e+00
          0.000e+00
          0.000e+00
          0.000e+00
          0.000e+00
          0.000e+00
          0.000e+00
          0.000e+00
          0.000e+00
          0.000e+00
          0.000e+00
          0.000e+00
          0.000e+00
          0.000e+00
          0.000e+00
          0.000e+00
          0.000e+00
          0.000e+00
          0.000e+00
          0.000e+00
          0.000e+00
          0.000e+00
          0.000e+00
          0.000e+00
          0.000e+00
          0.000e+00
          0.000e+00
          0.000e+00
          0.000e+00
          0.000e+00
          0.000e+00
          0.000e+00
          0.000e+00
          0.000e+00
          0.000e+00
          0.000e+00
          0.000e+00
          0.000e+00
          0.000e+00
          0.000e+00
          0.000e+00
          0.000e+00
          0.000e+00
          0.000e+00
          0.000e+00
          0.000e+00
          0.000e+00
          0.000e+00
          0.000e+00
          0.000e+00
          0.000e+00
          0.000e+00
          0.000e+00
          0.000e+00
          0.000e+00
          0.000e+00
          0.000e+00
          0.000e+00
          0.000e+00
          0.000e+00
          0.000e+00
          0.000e+00
          0.000e+00
          0.000e+00
          0.000e+00
          0.000e+00
          0.000e+00
          0.000e+00
          0.000e+00
          0.000e+00
          0.000e+00
          0.000e+00
          0.000e+00
          0.000e+00
          0.000e+00
          0.000e+00
          0.000e+00
          0.000e+00
          0.000e+00
          0.000e+00
          0.000e+00
          0.000e+00
          0.000e+00
          0.000e+00
          0.000e+00
          0.000e+00
          0.000e+00
          0.000e+00
          0.000e+00
          0.000e+00
          0.000e+00
          0.000e+00
          0.000e+00
          0.000e+00
          0.000e+00
          0.000e+00
          0.000e+00
          0.000e+00
          0.000e+00
          0.000e+00
          0.000e+00
          0.000e+00
          0.000e+00
          0.000e+00
          0.000e+00
          0.000e+00
          0.000e+00
          0.000e+00
          0.000e+00
          0.000e+00
          0.000e+00
          0.000e+00
          0.000e+00
          0.000e+00
          0.000e+00
          0.000e+00
          0.000e+00
          0.000e+00
          0.000e+00
          0.000e+00
          0.000e+00
          0.000e+00
          0.000e+00
          0.000e+00
          0.000e+00
          0.000e+00
          0.000e+00
          0.000e+00
          0.000e+00
          0.000e+00
          0.000e+00
          0.000e+00
          0.000e+00
          0.000e+00
          0.000e+00
          0.000e+00
          0.000e+00
          0.000e+00
          0.000e+00
          0.000e+00
          0.000e+00
          0.000e+00
          0.000e+00
          0.000e+00
          0.000e+00
          0.000e+00
          0.000e+00
          0.000e+00
          0.000e+00
          0.000e+00
          0.000e+00
          0.000e+00
          0.000e+00
          0.000e+00
          0.000e+00
          0.000e+00
          0.000e+00
          0.000e+00
          0.000e+00
          0.000e+00
          0.000e+00
          0.000e+00
          0.000e+00
          0.000e+00
          0.000e+00
          0.000e+00
          0.000e+00
          0.000e+00
          0.000e+00
          0.000e+00
          0.000e+00
          0.000e+00
          0.000e+00
          0.000e+00
          0.000e+00
          0.000e+00
          0.000e+00
          0.000e+00
          0.000e+00
          0.000e+00
          0.000e+00
          0.000e+00
          0.000e+00
          0.000e+00
          0.000e+00
          0.000e+00
          0.000e+00
          0.000e+00
          0.000e+00
          0.000e+00
          0.000e+00
          0.000e+00
          0.000e+00
          0.000e+00
          0.000e+00
          0.000e+00
          0.000e+00
          0.000e+00
          0.000e+00
          0.000e+00
          0.000e+00
          0.000e+00
          0.000e+00
          0.000e+00
          0.000e+00
          0.000e+00
          0.000e+00
          0.000e+00
          0.000e+00
          0.000e+00
          0.000e+00
          0.000e+00
          0.000e+00
          0.000e+00
          0.000e+00
          0.000e+00
          0.000e+00
          0.000e+00
          0.000e+00
          0.000e+00
          0.000e+00
          0.000e+00
          0.000e+00
          0.000e+00
          0.000e+00
          0.000e+00
          0.000e+00
          0.000e+00
          0.000e+00
          0.000e+00
          0.000e+00
          0.000e+00
          0.000e+00
          0.000e+00
          0.000e+00
          0.000e+00
          0.000e+00
          0.000e+00
          0.000e+00
          0.000e+00
          0.000e+00
          0.000e+00
          0.000e+00
          0.000e+00
          0.000e+00
          0.000e+00
          0.000e+00
          0.000e+00
          0.000e+00
          0.000e+00
          0.000e+00
          0.000e+00
          0.000e+00
          0.000e+00
          0.000e+00
          0.000e+00
          0.000e+00
          0.000e+00
          0.000e+00
          0.000e+00
          0.000e+00
          0.000e+00
          0.000e+00
          0.000e+00
          0.000e+00
          0.000e+00
          0.000e+00
          0.000e+00
          0.000e+00
          0.000e+00
          0.000e+00
          0.000e+00
          0.000e+00
          0.000e+00
          0.000e+00
          0.000e+00
          0.000e+00
          0.000e+00
          0.000e+00
          0.000e+00
          0.000e+00
          0.000e+00
          0.000e+00
          0.000e+00
          0.000e+00
          0.000e+00
          0.000e+00
          0.000e+00
          0.000e+00
          0.000e+00
          0.000e+00
          0.000e+00
          0.000e+00
          0.000e+00
          0.000e+00
          0.000e+00
          0.000e+00
          0.000e+00
          0.000e+00
          0.000e+00
          0.000e+00
          0.000e+00
          0.000e+00
          0.000e+00
          0.000e+00
          0.000e+00
          0.000e+00
          0.000e+00
          0.000e+00
          0.000e+00
          0.000e+00
          0.000e+00
          0.000e+00
          0.000e+00
          0.000e+00
          0.000e+00
          0.000e+00
          0.000e+00
          0.000e+00
          0.000e+00
          0.000e+00
          0.000e+00
          0.000e+00
          0.000e+00
          0.000e+00
          0.000e+00
          0.000e+00
          0.000e+00
          0.000e+00
          0.000e+00
          0.000e+00
          0.000e+00
          0.000e+00
          0.000e+00
          0.000e+00
          0.000e+00
          0.000e+00
          0.000e+00
          0.000e+00
          0.000e+00
          0.000e+00
          0.000e+00
          0.000e+00
          0.000e+00
          0.000e+00
          0.000e+00
          0.000e+00
          0.000e+00
          0.000e+00
          0.000e+00
          0.000e+00
          0.000e+00
          0.000e+00
          0.000e+00
          0.000e+00
          0.000e+00
          0.000e+00
          0.000e+00
          0.000e+00
          0.000e+00
          0.000e+00
          0.000e+00
          0.000e+00
          0.000e+00
          0.000e+00
          0.000e+00
          0.000e+00
          0.000e+00
          0.000e+00
          0.000e+00
          0.000e+00
          0.000e+00
          0.000e+00
          0.000e+00
          0.000e+00
          0.000e+00
          0.000e+00
          0.000e+00
          0.000e+00
          0.000e+00
          0.000e+00
          0.000e+00
          0.000e+00
          0.000e+00
          0.000e+00
          0.000e+00
          0.000e+00
          0.000e+00
          0.000e+00
          0.000e+00
          0.000e+00
          0.000e+00
          0.000e+00
          0.000e+00
          0.000e+00
          0.000e+00
          0.000e+00
          0.000e+00
          0.000e+00
          0.000e+00
          0.000e+00
          0.000e+00
          0.000e+00
          0.000e+00
        </DataArray>
      </PointData>
    </Piece>
  </UnstructuredGrid>
</VTKFile>
