<?xml version="1.0"?>
<VTKFile type="UnstructuredGrid" version="0.1" byte_order="LittleEndian" compressor="vtkZLibDataCompressor">
  <UnstructuredGrid>
    <Piece NumberOfPoints="2502" NumberOfCells="5000">
      <Points>
        <DataArray type="Float32" NumberOfComponents="3" format="ascii">
          1.037e+02 1.346e+02 1.102e+02
          1.032e+02 1.349e+02 1.105e+02
          1.037e+02 1.331e+02 1.103e+02
          1.047e+02 1.329e+02 1.101e+02
          1.058e+02 1.327e+02 1.105e+02
          1.028e+02 1.337e+02 1.106e+02
          1.034e+02 1.338e+02 1.102e+02
          1.034e+02 1.343e+02 1.102e+02
          1.024e+02 1.346e+02 1.107e+02
          1.043e+02 1.341e+02 1.100e+02
          1.048e+02 1.349e+02 1.103e+02
          1.027e+02 1.353e+02 1.106e+02
          1.021e+02 1.357e+02 1.106e+02
          1.039e+02 1.351e+02 1.103e+02
          1.034e+02 1.355e+02 1.105e+02
          1.029e+02 1.361e+02 1.105e+02
          1.041e+02 1.361e+02 1.105e+02
          1.021e+02 1.377e+02 1.106e+02
          1.024e+02 1.372e+02 1.106e+02
          1.034e+02 1.371e+02 1.106e+02
          1.060e+02 1.314e+02 1.114e+02
          1.038e+02 1.322e+02 1.110e+02
          1.049e+02 1.316e+02 1.115e+02
          1.052e+02 1.320e+02 1.107e+02
          1.029e+02 1.331e+02 1.108e+02
          1.018e+02 1.341e+02 1.110e+02
          1.056e+02 1.337e+02 1.102e+02
          1.015e+02 1.352e+02 1.109e+02
          1.011e+02 1.350e+02 1.113e+02
          1.056e+02 1.346e+02 1.104e+02
          1.061e+02 1.349e+02 1.107e+02
          1.015e+02 1.364e+02 1.108e+02
          1.054e+02 1.356e+02 1.106e+02
          1.018e+02 1.373e+02 1.106e+02
          1.010e+02 1.373e+02 1.109e+02
          1.016e+02 1.380e+02 1.106e+02
          1.023e+02 1.381e+02 1.106e+02
          1.042e+02 1.371e+02 1.107e+02
          1.022e+02 1.388e+02 1.108e+02
          1.030e+02 1.383e+02 1.107e+02
          1.038e+02 1.379e+02 1.108e+02
          1.057e+02 1.309e+02 1.122e+02
          1.035e+02 1.319e+02 1.122e+02
          1.067e+02 1.308e+02 1.120e+02
          1.076e+02 1.312e+02 1.121e+02
          1.083e+02 1.310e+02 1.126e+02
          1.031e+02 1.325e+02 1.115e+02
          1.027e+02 1.328e+02 1.119e+02
          1.067e+02 1.320e+02 1.110e+02
          1.081e+02 1.321e+02 1.114e+02
          1.024e+02 1.333e+02 1.113e+02
          1.016e+02 1.339e+02 1.114e+02
          1.017e+02 1.336e+02 1.118e+02
          1.067e+02 1.330e+02 1.106e+02
          1.081e+02 1.334e+02 1.110e+02
          1.092e+02 1.329e+02 1.115e+02
          1.009e+02 1.344e+02 1.118e+02
          1.068e+02 1.341e+02 1.107e+02
          1.008e+02 1.354e+02 1.116e+02
          1.005e+02 1.354e+02 1.121e+02
          1.069e+02 1.349e+02 1.110e+02
          1.074e+02 1.351e+02 1.112e+02
          1.081e+02 1.347e+02 1.112e+02
          1.010e+02 1.362e+02 1.112e+02
          1.006e+02 1.370e+02 1.113e+02
          1.005e+02 1.364e+02 1.119e+02
          1.062e+02 1.356e+02 1.109e+02
          1.060e+02 1.362e+02 1.109e+02
          1.005e+02 1.376e+02 1.113e+02
          1.002e+02 1.374e+02 1.118e+02
          1.051e+02 1.366e+02 1.107e+02
          1.009e+02 1.385e+02 1.110e+02
          9.996e+01 1.384e+02 1.114e+02
          1.050e+02 1.373e+02 1.109e+02
          1.004e+02 1.392e+02 1.113e+02
          1.028e+02 1.392e+02 1.111e+02
          1.036e+02 1.388e+02 1.110e+02
          1.046e+02 1.381e+02 1.110e+02
          1.042e+02 1.386e+02 1.110e+02
          1.004e+02 1.399e+02 1.117e+02
          1.053e+02 1.306e+02 1.130e+02
          1.064e+02 1.302e+02 1.127e+02
          1.045e+02 1.315e+02 1.123e+02
          1.047e+02 1.309e+02 1.134e+02
          1.075e+02 1.303e+02 1.129e+02
          1.084e+02 1.304e+02 1.130e+02
          1.109e+02 1.300e+02 1.135e+02
          1.026e+02 1.324e+02 1.126e+02
          1.039e+02 1.315e+02 1.134e+02
          1.091e+02 1.308e+02 1.126e+02
          1.105e+02 1.307e+02 1.127e+02
          1.116e+02 1.304e+02 1.131e+02
          1.022e+02 1.330e+02 1.123e+02
          1.016e+02 1.335e+02 1.124e+02
          1.112e+02 1.318e+02 1.122e+02
          1.124e+02 1.318e+02 1.125e+02
          1.137e+02 1.322e+02 1.132e+02
          1.010e+02 1.339e+02 1.123e+02
          1.005e+02 1.345e+02 1.127e+02
          1.099e+02 1.320e+02 1.118e+02
          1.103e+02 1.333e+02 1.117e+02
          1.112e+02 1.329e+02 1.119e+02
          1.124e+02 1.328e+02 1.121e+02
          1.003e+02 1.350e+02 1.125e+02
          1.094e+02 1.341e+02 1.115e+02
          1.113e+02 1.337e+02 1.119e+02
          1.133e+02 1.337e+02 1.125e+02
          1.138e+02 1.331e+02 1.128e+02
          1.001e+02 1.360e+02 1.126e+02
          1.077e+02 1.356e+02 1.114e+02
          1.091e+02 1.348e+02 1.116e+02
          1.107e+02 1.342e+02 1.118e+02
          1.125e+02 1.342e+02 1.122e+02
          1.069e+02 1.358e+02 1.112e+02
          1.066e+02 1.368e+02 1.113e+02
          9.941e+01 1.380e+02 1.119e+02
          1.058e+02 1.370e+02 1.111e+02
          9.957e+01 1.388e+02 1.117e+02
          9.895e+01 1.387e+02 1.121e+02
          1.054e+02 1.379e+02 1.112e+02
          1.052e+02 1.386e+02 1.115e+02
          9.974e+01 1.395e+02 1.118e+02
          9.905e+01 1.394e+02 1.121e+02
          1.015e+02 1.394e+02 1.113e+02
          1.029e+02 1.398e+02 1.116e+02
          1.037e+02 1.396e+02 1.115e+02
          1.047e+02 1.389e+02 1.113e+02
          1.043e+02 1.393e+02 1.114e+02
          9.933e+01 1.402e+02 1.122e+02
          1.012e+02 1.404e+02 1.120e+02
          1.022e+02 1.401e+02 1.118e+02
          1.061e+02 1.299e+02 1.136e+02
          1.074e+02 1.297e+02 1.137e+02
          1.085e+02 1.300e+02 1.135e+02
          1.098e+02 1.298e+02 1.137e+02
          1.101e+02 1.298e+02 1.147e+02
          1.123e+02 1.301e+02 1.142e+02
          1.130e+02 1.313e+02 1.133e+02
          1.133e+02 1.310e+02 1.146e+02
          1.140e+02 1.317e+02 1.150e+02
          1.024e+02 1.323e+02 1.133e+02
          1.031e+02 1.317e+02 1.133e+02
          1.046e+02 1.314e+02 1.145e+02
          1.019e+02 1.329e+02 1.129e+02
          1.014e+02 1.333e+02 1.133e+02
          1.028e+02 1.320e+02 1.143e+02
          1.036e+02 1.317e+02 1.148e+02
          1.145e+02 1.321e+02 1.142e+02
          1.009e+02 1.339e+02 1.130e+02
          1.002e+02 1.345e+02 1.133e+02
          1.147e+02 1.332e+02 1.137e+02
          1.148e+02 1.340e+02 1.144e+02
          9.986e+01 1.352e+02 1.131e+02
          9.980e+01 1.359e+02 1.133e+02
          1.140e+02 1.340e+02 1.131e+02
          1.146e+02 1.343e+02 1.137e+02
          9.999e+01 1.364e+02 1.131e+02
          1.079e+02 1.363e+02 1.117e+02
          1.087e+02 1.356e+02 1.117e+02
          1.098e+02 1.350e+02 1.118e+02
          1.107e+02 1.351e+02 1.121e+02
          1.116e+02 1.348e+02 1.122e+02
          1.134e+02 1.346e+02 1.128e+02
          9.999e+01 1.371e+02 1.125e+02
          9.923e+01 1.376e+02 1.127e+02
          1.074e+02 1.365e+02 1.115e+02
          1.077e+02 1.370e+02 1.119e+02
          1.084e+02 1.366e+02 1.121e+02
          1.093e+02 1.360e+02 1.122e+02
          1.103e+02 1.358e+02 1.123e+02
          1.112e+02 1.356e+02 1.125e+02
          1.124e+02 1.353e+02 1.127e+02
          9.867e+01 1.384e+02 1.127e+02
          1.062e+02 1.375e+02 1.115e+02
          9.856e+01 1.392e+02 1.124e+02
          9.816e+01 1.391e+02 1.128e+02
          1.058e+02 1.383e+02 1.118e+02
          1.055e+02 1.391e+02 1.121e+02
          9.863e+01 1.399e+02 1.124e+02
          9.808e+01 1.399e+02 1.128e+02
          1.038e+02 1.403e+02 1.122e+02
          1.051e+02 1.397e+02 1.119e+02
          1.046e+02 1.400e+02 1.120e+02
          9.828e+01 1.407e+02 1.127e+02
          9.913e+01 1.408e+02 1.125e+02
          1.001e+02 1.405e+02 1.121e+02
          1.019e+02 1.408e+02 1.124e+02
          1.030e+02 1.402e+02 1.120e+02
          1.026e+02 1.404e+02 1.123e+02
          9.860e+01 1.414e+02 1.128e+02
          1.103e+02 1.298e+02 1.150e+02
          1.110e+02 1.298e+02 1.144e+02
          1.125e+02 1.304e+02 1.151e+02
          1.095e+02 1.297e+02 1.148e+02
          1.086e+02 1.297e+02 1.145e+02
          1.131e+02 1.309e+02 1.153e+02
          1.053e+02 1.306e+02 1.141e+02
          1.073e+02 1.299e+02 1.148e+02
          1.054e+02 1.314e+02 1.151e+02
          1.061e+02 1.304e+02 1.146e+02
          1.069e+02 1.305e+02 1.153e+02
          1.015e+02 1.333e+02 1.141e+02
          1.020e+02 1.326e+02 1.139e+02
          1.046e+02 1.321e+02 1.156e+02
          1.149e+02 1.333e+02 1.146e+02
          1.007e+02 1.341e+02 1.139e+02
          1.018e+02 1.329e+02 1.149e+02
          1.026e+02 1.324e+02 1.152e+02
          1.035e+02 1.324e+02 1.158e+02
          9.991e+01 1.351e+02 1.139e+02
          9.990e+01 1.359e+02 1.142e+02
          1.144e+02 1.348e+02 1.146e+02
          1.144e+02 1.350e+02 1.142e+02
          9.992e+01 1.370e+02 1.134e+02
          9.927e+01 1.375e+02 1.135e+02
          1.141e+02 1.353e+02 1.137e+02
          9.882e+01 1.379e+02 1.133e+02
          9.849e+01 1.385e+02 1.136e+02
          1.089e+02 1.370e+02 1.125e+02
          1.096e+02 1.364e+02 1.127e+02
          1.105e+02 1.362e+02 1.128e+02
          1.115e+02 1.360e+02 1.129e+02
          1.124e+02 1.361e+02 1.131e+02
          1.133e+02 1.359e+02 1.134e+02
          1.139e+02 1.360e+02 1.145e+02
          9.826e+01 1.386e+02 1.131e+02
          1.068e+02 1.377e+02 1.120e+02
          1.080e+02 1.377e+02 1.126e+02
          9.788e+01 1.394e+02 1.131e+02
          1.061e+02 1.389e+02 1.125e+02
          1.070e+02 1.382e+02 1.127e+02
          9.764e+01 1.403e+02 1.132e+02
          1.042e+02 1.404e+02 1.130e+02
          1.054e+02 1.398e+02 1.126e+02
          1.051e+02 1.402e+02 1.130e+02
          1.058e+02 1.396e+02 1.131e+02
          9.769e+01 1.411e+02 1.132e+02
          1.009e+02 1.412e+02 1.127e+02
          1.020e+02 1.414e+02 1.130e+02
          1.032e+02 1.405e+02 1.126e+02
          1.027e+02 1.409e+02 1.130e+02
          1.037e+02 1.406e+02 1.131e+02
[...]
      <PointData Scalars="JD_Thresh">
        <DataArray type="Float32" Name="JD_Thresh" NumberOfComponents="1" format="ascii">
          0.000e+00
          0.000e+00
          0.000e+00
          0.000e+00
          0.000e+00
          0.000e+00
          0.000e+00
          0.000e+00
          0.000e+00
          0.000e+00
          0.000e+00
          0.000e+00
          0.000e+00
          0.000e+00
          0.000e+00
          0.000e+00
          0.000e+00
          0.000e+00
          0.000e+00
          0.000e+00
          0.000e+00
          0.000e+00
          0.000e+00
          0.000e+00
          0.000e+00
          0.000e+00
          0.000e+00
          0.000e+00
          0.000e+00
          0.000e+00
          0.000e+00
          0.000e+00
          0.000e+00
          0.000e+00
          0.000e+00
          0.000e+00
          0.000e+00
          0.000e+00
          0.000e+00
          0.000e+00
          0.000e+00
          0.000e+00
          0.000e+00
          0.000e+00
          0.000e+00
          0.000e+00
          0.000e+00
          0.000e+00
          0.000e+00
          0.000e+00
          0.000e+00
          0.000e+00
          0.000e+00
          0.000e+00
          0.000e+00
          0.000e+00
          0.000e+00
          0.000e+00
          0.000e+00
          0.000e+00
          0.000e+00
          0.000e+00
          0.000e+00
          0.000e+00
          0.000e+00
          0.000e+00
          0.000e+00
          0.000e+00
          0.000e+00
          0.000e+00
          0.000e+00
          0.000e+00
          0.000e+00
          0.000e+00
          0.000e+00
          0.000e+00
          0.000e+00
          0.000e+00
          0.000e+00
          0.000e+00
          0.000e+00
          0.000e+00
          0.000e+00
          0.000e+00
          0.000e+00
          0.000e+00
          0.000e+00
          0.000e+00
          0.000e+00
          0.000e+00
          0.000e+00
          0.000e+00
          0.000e+00
          0.000e+00
          0.000e+00
          0.000e+00
          0.000e+00
          0.000e+00
          0.000e+00
          0.000e+00
          0.000e+00
          0.000e+00
          0.000e+00
          0.000e+00
          0.000e+00
          0.000e+00
          0.000e+00
          0.000e+00
          0.000e+00
          0.000e+00
          0.000e+00
          0.000e+00
          0.000e+00
          0.000e+00
          0.000e+00
          0.000e+00
          0.000e+00
          0.000e+00
          0.000e+00
          0.000e+00
          0.000e+00
          0.000e+00
          0.000e+00
          0.000e+00
          0.000e+00
          0.000e+00
          0.000e+00
          0.000e+00
          0.000e+00
          0.000e+00
          0.000e+00
          0.000e+00
          0.000e+00
          0.000e+00
          0.000e+00
          0.000e+00
          0.000e+00
          0.000e+00
          0.000e+00
          0.000e+00
          0.000e+00
          0.000e+00
          0.000e+00
          0.000e+00
          0.000e+00
          0.000e+00
          0.000e+00
          0.000e+00
          0.000e+00
          0.000e+00
          0.000e+00
          0.000e+00
          0.000e+00
          0.000e+00
          0.000e+00
          0.000e+00
          0.000e+00
          0.000e+00
          0.000e+00
          0.000e+00
          0.000e+00
          0.000e+00
          0.000e+00
          0.000e+00
          0.000e+00
          0.000e+00
          0.000e+00
          0.000e+00
          0.000e+00
          0.000e+00
          0.000e+00
          0.000e+00
          0.000e+00
          0.000e+00
          0.000e+00
          0.000e+00
          0.000e+00
          0.000e+00
          0.000e+00
          0.000e+00
          0.000e+00
          0.000e+00
          0.000e+00
          0.000e+00
          0.000e+00
          0.000e+00
          0.000e+00
          0.000e+00
          0.000e+00
          0.000e+00
          0.000e+00
          0.000e+00
          0.000e+00
          0.000e+00
          0.000e+00
          0.000e+00
          0.000e+00
          0.000e+00
          0.000e+00
          0.000e+00
          0.000e+00
          0.000e+00
          0.000e+00
          0.000e+00
          0.000e+00
          0.000e+00
          0.000e+00
          0.000e+00
          0.000e+00
          0.000e+00
          0.000e+00
          0.000e+00
          0.000e+00
          0.000e+00
          0.000e+00
          0.000e+00
          0.000e+00
          0.000e+00
          0.000e+00
          0.000e+00
          0.000e+00
          0.000e+00
          0.000e+00
          0.000e+00
          0.000e+00
          0.000e+00
          0.000e+00
          0.000e+00
          0.000e+00
          0.000e+00
          0.000e+00
          0.000e+00
          0.000e+00
          0.000e+00
          0.000e+00
          0.000e+00
          0.000e+00
          0.000e+00
          0.000e+00
          0.000e+00
          0.000e+00
          0.000e+00
          0.000e+00
          0.000e+00
          0.000e+00
          0.000e+00
          0.000e+00
          0.000e+00
          0.000e+00
          0.000e+00
          0.000e+00
          0.000e+00
          0.000e+00
          0.000e+00
          0.000e+00
          0.000e+00
          0.000e+00
          0.000e+00
          0.000e+00
          0.000e+00
          0.000e+00
          0.000e+00
          0.000e+00
          0.000e+00
          0.000e+00
          0.000e+00
          0.000e+00
          0.000e+00
          0.000e+00
          0.000e+00
          0.000e+00
          0.000e+00
          0.000e+00
          0.000e+00
          0.000e+00
          0.000e+00
          0.000e+00
          0.000e+00
          0.000e+00
          0.000e+00
          0.000e+00
          0.000e+00
          0.000e+00
          0.000e+00
          0.000e+00
          0.000e+00
          0.000e+00
          0.000e+00
          0.000e+00
          0.000e+00
          0.000e+00
          0.000e+00
          0.000e+00
          0.000e+00
          0.000e+00
          0.000e+00
          0.000e+00
          0.000e+00
          0.000e+00
          0.000e+00
          0.000e+00
          0.000e+00
          0.000e+00
          0.000e+00
          0.000e+00
          0.000e+00
          0.000e+00
          0.000e+00
          0.000e+00
          0.000e+00
          0.000e+00
          0.000e+00
          0.000e+00
          0.000e+00
          0.000e+00
          0.000e+00
          0.000e+00
          0.000e+00
          0.000e+00
          0.000e+00
          0.000e+00
          0.000e+00
          0.000e+00
          0.000e+00
          0.000e+00
          0.000e+00
          0.000e+00
          0.000e+00
          0.000e+00
          0.000e+00
          0.000e+00
          0.000e+00
          0.000e+00
          0.000e+00
          0.000e+00
          0.000e+00
          0.000e+00
          0.000e+00
          0.000e+00
          0.000e+00
          0.000e+00
          0.000e+00
          0.000e+00
          0.000e+00
          0.000e+00
          0.000e+00
          0.000e+00
          0.000e+00
          0.000e+00
          0.000e+00
          0.000e+00
          0.000e+00
          0.000e+00
          0.000e+00
          0.000e+00
          0.000e+00
          0.000e+00
          0.000e+00
          0.000e+00
          0.000e+00
          0.000e+00
          0.000e+00
          0.000e+00
          0.000e+00
          0.000e+00
          0.000e+00
          0.000e+00
          0.000e+00
          0.000e+00
          0.000e+00
          0.000e+00
          0.000e+00
          0.000e+00
          0.000e+00
          0.000e+00
          0.000e+00
          0.000e+00
          0.000e+00
          0.000e+00
          0.000e+00
          0.000e+00
          0.000e+00
          0.000e+00
          0.000e+00
          0.000e+00
          0.000e+00
          0.000e+00
          0.000e+00
          0.000e+00
          0.000e+00
          0.000e+00
          0.000e+00
          0.000e+00
          0.000e+00
          0.000e+00
          0.000e+00
          0.000e+00
          0.000e+00
          0.000e+00
          0.000e+00
          0.000e+00
          0.000e+00
          0.000e+00
          0.000e+00
          0.000e+00
          0.000e+00
          0.000e+00
          0.000e+00
          0.000e+00
          0.000e+00
          0.000e+00
          0.000e+00
          0.000e+00
          0.000e+00
          0.000e+00
          0.000e+00
          0.000e+00
          0.000e+00
          0.000e+00
          0.000e+00
          0.000e+00
          0.000e+00
          0.000e+00
          0.000e+00
          0.000e+00
          0.000e+00
          0.000e+00
          0.000e+00
          0.000e+00
          0.000e+00
          0.000e+00
          0.000e+00
          0.000e+00
          0.000e+00
          0.000e+00
          0.000e+00
          0.000e+00
          0.000e+00
          0.000e+00
          0.000e+00
          0.000e+00
          0.000e+00
          0.000e+00
          0.000e+00
          0.000e+00
          0.000e+00
          0.000e+00
          0.000e+00
          0.000e+00
          0.000e+00
          0.000e+00
          0.000e+00
          0.000e+00
          0.000e+00
          0.000e+00
          0.000e+00
          0.000e+00
          0.000e+00
          0.000e+00
          0.000e+00
          0.000e+00
          0.000e+00
          0.000e+00
          0.000e+00
          0.000e+00
          0.000e+00
          0.000e+00
          0.000e+00
          0.000e+00
          0.000e+00
          0.000e+00
          0.000e+00
          0.000e+00
          0.000e+00
          0.000e+00
          0.000e+00
          0.000e+00
          0.000e+00
          0.000e+00
          0.000e+00
          0.000e+00
          0.000e+00
          0.000e+00
          0.000e+00
          0.000e+00
          0.000e+00
          0.000e+00
          0.000e+00
          0.000e+00
          0.000e+00
          0.000e+00
          0.000e+00
          0.000e+00
          0.000e+00
          0.000e+00
          0.000e+00
          0.000e+00
          0.000e+00
          0.000e+00
          0.000e+00
          0.000e+00
          0.000e+00
          0.000e+00
          0.000e+00
          0.000e+00
          0.000e+00
          0.000e+00
          0.000e+00
          0.000e+00
          0.000e+00
          0.000e+00
          0.000e+00
          0.000e+00
          0.000e+00
          0.000e+00
          0.000e+00
          0.000e+00
          0.000e+00
          0.000e+00
          0.000e+00
          0.000e+00
          0.000e+00
          0.000e+00
          0.000e+00
          0.000e+00
          0.000e+00
          0.000e+00
          0.000e+00
          0.000e+00
          0.000e+00
          0.000e+00
          0.000e+00
          0.000e+00
          0.000e+00
          0.000e+00
          0.000e+00
          0.000e+00
          0.000e+00
          0.000e+00
          0.000e+00
          0.000e+00
          0.000e+00
          0.000e+00
          0.000e+00
          0.000e+00
          0.000e+00
          0.000e+00
          0.000e+00
          0.000e+00
          0.000e+00
          0.000e+00
          0.000e+00
          0.000e+00
          0.000e+00
          0.000e+00
          0.000e+00
          0.000e+00
          0.000e+00
          0.000e+00
          0.000e+00
          0.000e+00
          0.000e+00
          0.000e+00
          0.000e+00
          0.000e+00
          0.000e+00
          0.000e+00
          0.000e+00
          0.000e+00
          0.000e+00
          0.000e+00
          0.000e+00
          0.000e+00
          0.000e+00
          0.000e+00
          0.000e+00
          0.000e+00
          0.000e+00
          0.000e+00
          0.000e+00
          0.000e+00
          0.000e+00
          0.000e+00
          0.000e+00
          0.000e+00
          0.000e+00
          0.000e+00
          0.000e+00
          0.000e+00
          0.000e+00
          0.000e+00
          0.000e+00
          0.000e+00
          0.000e+00
          0.000e+00
          0.000e+00
          0.000e+00
          0.000e+00
          0.000e+00
          0.000e+00
          0.000e+00
          0.000e+00
          0.000e+00
          0.000e+00
          0.000e+00
          0.000e+00
          0.000e+00
          0.000e+00
          0.000e+00
          0.000e+00
          0.000e+00
          0.000e+00
          0.000e+00
          0.000e+00
          0.000e+00
          0.000e+00
          0.000e+00
          0.000e+00
          0.000e+00
          0.000e+00
          0.000e+00
          0.000e+00
          0.000e+00
          0.000e+00
          0.000e+00
          0.000e+00
          0.000e+00
          0.000e+00
          0.000e+00
          0.000e+00
          0.000e+00
          0.000e+00
          0.000e+00
          0.000e+00
          0.000e+00
          0.000e+00
          0.000e+00
          0.000e+00
          0.000e+00
          0.000e+00
          0.000e+00
          0.000e+00
          0.000e+00
          0.000e+00
          0.000e+00
          0.000e+00
          0.000e+00
          0.000e+00
          0.000e+00
          0.000e+00
          0.000e+00
          0.000e+00
          0.000e+00
          0.000e+00
          0.000e+00
          0.000e+00
          0.000e+00
          0.000e+00
          0.000e+00
          0.000e+00
          0.000e+00
          0.000e+00
          0.000e+00
          0.000e+00
          0.000e+00
          0.000e+00
          0.000e+00
          0.000e+00
          0.000e+00
          0.000e+00
          0.000e+00
          0.000e+00
          0.000e+00
          0.000e+00
          0.000e+00
          0.000e+00
          0.000e+00
          0.000e+00
          0.000e+00
          0.000e+00
          0.000e+00
          0.000e+00
          0.000e+00
          0.000e+00
          0.000e+00
          0.000e+00
          0.000e+00
          0.000e+00
          0.000e+00
          0.000e+00
          0.000e+00
          0.000e+00
          0.000e+00
          0.000e+00
          0.000e+00
          0.000e+00
          0.000e+00
          0.000e+00
          0.000e+00
          0.000e+00
          0.000e+00
          0.000e+00
          0.000e+00
          0.000e+00
          0.000e+00
          0.000e+00
          0.000e+00
          0.000e+00
          0.000e+00
          0.000e+00
          0.000e+00
          0.000e+00
          0.000e+00
          0.000e+00
          0.000e+00
          0.000e+00
          0.000e+00
          0.000e+00
          0.000e+00
          0.000e+00
          0.000e+00
          0.000e+00
          0.000e+00
          0.000e+00
          0.000e+00
          0.000e+00
          0.000e+00
          0.000e+00
          0.000e+00
          0.000e+00
          0.000e+00
          0.000e+00
          0.000e+00
          0.000e+00
          0.000e+00
          0.000e+00
          0.000e+00
          0.000e+00
          0.000e+00
          0.000e+00
          0.000e+00
          0.000e+00
          0.000e+00
          0.000e+00
          0.000e+00
          0.000e+00
          0.000e+00
          0.000e+00
          0.000e+00
          0.000e+00
          0.000e+00
          0.000e+00
          0.000e+00
          0.000e+00
          0.000e+00
          0.000e+00
          0.000e+00
          0.000e+00
          0.000e+00
          0.000e+00
          0.000e+00
          0.000e+00
          0.000e+00
          0.000e+00
          0.000e+00
          0.000e+00
          0.000e+00
          0.000e+00
          0.000e+00
          0.000e+00
          0.000e+00
          0.000e+00
          0.000e+00
          0.000e+00
          0.000e+00
          0.000e+00
          0.000e+00
          0.000e+00
          0.000e+00
          0.000e+00
          0.000e+00
          0.000e+00
          0.000e+00
          0.000e+00
          0.000e+00
          0.000e+00
          0.000e+00
          0.000e+00
          0.000e+00
          0.000e+00
          0.000e+00
          0.000e+00
          0.000e+00
          0.000e+00
          0.000e+00
          0.000e+00
          0.000e+00
          0.000e+00
          0.000e+00
          0.000e+00
          0.000e+00
          0.000e+00
          0.000e+00
          0.000e+00
          0.000e+00
          0.000e+00
          0.000e+00
          0.000e+00
          0.000e+00
          0.000e+00
          0.000e+00
          0.000e+00
          0.000e+00
          0.000e+00
          0.000e+00
          0.000e+00
          0.000e+00
          0.000e+00
          0.000e+00
          0.000e+00
          0.000e+00
          0.000e+00
          0.000e+00
          0.000e+00
          0.000e+00
          0.000e+00
          0.000e+00
          0.000e+00
          0.000e+00
          0.000e+00
          0.000e+00
          0.000e+00
          0.000e+00
          0.000e+00
          0.000e+00
          0.000e+00
          0.000e+00
          0.000e+00
          0.000e+00
          0.000e+00
          0.000e+00
          0.000e+00
          0.000e+00
          0.000e+00
          0.000e+00
          0.000e+00
          0.000e+00
          0.000e+00
          0.000e+00
          0.000e+00
          0.000e+00
          0.000e+00
          0.000e+00
          0.000e+00
          0.000e+00
          0.000e+00
          0.000e+00
          0.000e+00
          0.000e+00
          0.000e+00
          0.000e+00
          0.000e+00
          0.000e+00
          0.000e+00
          0.000e+00
          0.000e+00
          0.000e+00
          0.000e+00
          0.000e+00
          0.000e+00
          0.000e+00
          0.000e+00
          0.000e+00
          0.000e+00
          0.000e+00
          0.000e+00
          0.000e+00
          0.000e+00
          0.000e+00
          0.000e+00
          0.000e+00
          0.000e+00
          0.000e+00
          0.000e+00
          0.000e+00
          0.000e+00
          0.000e+00
          0.000e+00
          0.000e+00
          0.000e+00
          0.000e+00
          0.000e+00
          0.000e+00
          0.000e+00
          0.000e+00
          0.000e+00
          0.000e+00
          0.000e+00
          0.000e+00
          0.000e+00
          0.000e+00
          0.000e+00
          0.000e+00
          0.000e+00
          0.000e+00
          0.000e+00
          0.000e+00
          0.000e+00
          0.000e+00
          0.000e+00
          0.000e+00
          0.000e+00
          0.000e+00
          0.000e+00
          0.000e+00
          0.000e+00
          0.000e+00
          0.000e+00
          0.000e+00
          0.000e+00
          0.000e+00
          0.000e+00
          0.000e+00
          0.000e+00
          0.000e+00
          0.000e+00
          0.000e+00
          0.000e+00
          0.000e+00
          0.000e+00
          0.000e+00
          0.000e+00
          0.000e+00
          0.000e+00
          0.000e+00
          0.000e+00
          0.000e+00
          0.000e+00
          0.000e+00
          0.000e+00
          0.000e+00
          0.000e+00
          0.000e+00
          0.000e+00
          0.000e+00
          0.000e+00
          0.000e+00
          0.000e+00
          0.000e+00
          0.000e+00
          0.000e+00
          0.000e+00
          0.000e+00
          0.000e+00
          0.000e+00
          0.000e+00
          0.000e+00
          0.000e+00
          0.000e+00
          0.000e+00
          0.000e+00
          0.000e+00
          0.000e+00
          0.000e+00
          0.000e+00
          0.000e+00
          0.000e+00
          0.000e+00
          0.000e+00
          0.000e+00
          0.000e+00
          0.000e+00
          0.000e+00
          0.000e+00
          0.000e+00
          0.000e+00
          0.000e+00
          0.000e+00
          0.000e+00
          0.000e+00
          0.000e+00
          0.000e+00
          0.000e+00
          0.000e+00
          0.000e+00
          0.000e+00
          0.000e+00
          0.000e+00
          0.000e+00
          0.000e+00
          0.000e+00
          0.000e+00
          0.000e+00